----- GAMESS execution script 'rungms' -----
This job is running on host chemcompute-node-0.novalocal
under operating system Linux at Sat Nov 13 04:09:17 UTC 2021
SLURM has assigned the following compute nodes to this run:
chemcompute-node-0
Available scratch disk space (Kbyte units) at beginning of the job is
Filesystem     1K-blocks     Used Available Use% Mounted on
/dev/sda1       62903276 16895032  46008244  27% /
GAMESS temporary binary files will be written to /scratch/305668
GAMESS supplementary output files will be written to /data/slurm/341544
Copying input file 341544.inp to your run's scratch directory...
The generated host list is
chemcompute-node-0.novalocal

 Distributed Data Interface kickoff program.
 Initiating 1 compute processes on 1 nodes to run the following command:
 /data/gamess-2019R1-ddi/gamess.00.x 341544 

          ******************************************************
          *         GAMESS VERSION = 30 JUN 2019 (R1)          *
          *             FROM IOWA STATE UNIVERSITY             *
          * M.W.SCHMIDT, K.K.BALDRIDGE, J.A.BOATZ, S.T.ELBERT, *
          *   M.S.GORDON, J.H.JENSEN, S.KOSEKI, N.MATSUNAGA,   *
          *          K.A.NGUYEN, S.J.SU, T.L.WINDUS,           *
          *       TOGETHER WITH M.DUPUIS, J.A.MONTGOMERY       *
          *         J.COMPUT.CHEM.  14, 1347-1363(1993)        *
          **************** 64 BIT LINUX VERSION ****************

  SINCE 1993, STUDENTS AND POSTDOCS WORKING AT IOWA STATE UNIVERSITY
  AND ALSO IN THEIR VARIOUS JOBS AFTER LEAVING ISU HAVE MADE IMPORTANT
  CONTRIBUTIONS TO THE CODE:
     IVANA ADAMOVIC, CHRISTINE AIKENS, YURI ALEXEEV, POOJA ARORA,
     ANDREY ASADCHEV, ROB BELL, PRADIPTA BANDYOPADHYAY, JONATHAN BENTZ,
     COLLEEN BERTONI, BRETT BODE, KURT BRORSEN, CALEB CARLIN, GALINA CHABAN,
     WEI CHEN, CHEOL HO CHOI, PAUL DAY, ALBERT DEFUSCO, NUWAN DESILVA,
     TIM DUDLEY, DMITRI FEDOROV, ALEX FINDLATER, GRAHAM FLETCHER, 
     MARK FREITAG, KURT GLAESEMANN, ANASTASIA GUNINA,
     DAN KEMP, GRANT MERRILL, NORIYUKI MINEZAWA, JONATHAN MULLIN,
     TAKESHI NAGATA, SEAN NEDD, HEATHER NETZLOFF, BOSILJKA NJEGIC, RYAN OLSON,
     MIKE PAK, BUU PHAM,
     SPENCER PRUITT, LUKE ROSKOP, JIM SHOEMAKER, LYUDMILA SLIPCHENKO,
     TONY SMITH, SAROM SOK LEANG, JIE SONG, TETSUYA TAKETSUGU, SIMON WEBB,
     PENG XU, SOOHAENG YOO, FEDERICO ZAHARIEV

  ADDITIONAL CODE HAS BEEN PROVIDED BY COLLABORATORS IN OTHER GROUPS:
     IOWA STATE UNIVERSITY:
          JOE IVANIC, AARON WEST, LAIMUTIS BYTAUTAS, KLAUS RUEDENBERG
     UNIVERSITY OF TOKYO: KIMIHIKO HIRAO, TAKAHITO NAKAJIMA,
          TAKAO TSUNEDA, MUNEAKI KAMIYA, SUSUMU YANAGISAWA,
          KIYOSHI YAGI, MAHITO CHIBA, SEIKEN TOKURA, NAOAKI KAWAKAMI
     UNIVERSITY OF AARHUS: FRANK JENSEN
     UNIVERSITY OF IOWA: VISVALDAS KAIRYS, HUI LI
     NATIONAL INST. OF STANDARDS AND TECHNOLOGY: WALT STEVENS, DAVID GARMER
     UNIVERSITY OF PISA: BENEDETTA MENNUCCI, JACOPO TOMASI
     UNIVERSITY OF MEMPHIS: HENRY KURTZ, PRAKASHAN KORAMBATH
     UNIVERSITY OF ALBERTA: TOBY ZENG, MARIUSZ KLOBUKOWSKI
     UNIVERSITY OF NEW ENGLAND: MARK SPACKMAN
     MIE UNIVERSITY: HIROAKI UMEDA
     NAT. INST. OF ADVANCED INDUSTRIAL SCIENCE AND TECHNOLOGY: KAZUO KITAURA
     MICHIGAN STATE UNIVERSITY:
          KAROL KOWALSKI, MARTA WLOCH, JEFFREY GOUR, JESSE LUTZ,
          WEI LI, JUN SHEN, J. EMILIANO DEUSTUA, PIOTR PIECUCH
     UNIVERSITY OF MINNESOTA:
          YINAN SHU
     UNIVERSITY OF SILESIA: MONIKA MUSIAL, STANISLAW KUCHARSKI
     FACULTES UNIVERSITAIRES NOTRE-DAME DE LA PAIX:
          OLIVIER QUINET, BENOIT CHAMPAGNE
     UNIVERSITY OF CALIFORNIA - SANTA BARBARA: BERNARD KIRTMAN
     INSTITUTE FOR MOLECULAR SCIENCE:
          KAZUYA ISHIMURA, MICHIO KATOUDA, AND SHIGERU NAGASE
     UNIVERSITY OF NOTRE DAME: ANNA POMOGAEVA, DAN CHIPMAN
     KYUSHU UNIVERSITY:
          HARUYUKI NAKANO,
          FENG LONG GU, JACEK KORCHOWIEC, MARCIN MAKOWSKI, AND YURIKO AOKI,
          HIROTOSHI MORI AND EISAKU MIYOSHI
     PENNSYLVANIA STATE UNIVERSITY:
          TZVETELIN IORDANOV, CHET SWALINA, JONATHAN SKONE,
          SHARON HAMMES-SCHIFFER
     WASEDA UNIVERSITY:
          MASATO KOBAYASHI, TOMOKO AKAMA, TSUGUKI TOUMA,
          TAKESHI YOSHIKAWA, YASUHIRO IKABATA, JUNJI SEINO,
          YUYA NAKAJIMA, HIROMI NAKAI
     NANJING UNIVERSITY: SHUHUA LI
     UNIVERSITY OF NEBRASKA:
          PEIFENG SU, DEJUN SI, NANDUN THELLAMUREGE, YALI WANG, HUI LI
     UNIVERSITY OF ZURICH: ROBERTO PEVERATI, KIM BALDRIDGE
     N. COPERNICUS UNIVERSITY AND JACKSON STATE UNIVERSITY:
          MARIA BARYSZ
     UNIVERSITY OF COPENHAGEN: Jimmy Kromann, CASPER STEINMANN
     TOKYO INSTITUTE OF TECHNOLOGY: HIROYA NAKATA
     NAGOYA UNIVERSITY: YOSHIO NISHIMOTO, STEPHAN IRLE
     MOSCOW STATE UNIVERSITY: VLADIMIR MIRONOV
     A.N.NESMEYANOV INSTITUTE OF ORGANOELEMENT COMPOUNDS OF RUSSIAN ACADEMY OF SCIENCES:
          IGOR S. GERASIMOV

 EXECUTION OF GAMESS BEGUN Sat Nov 13 04:09:17 2021

            ECHO OF THE FIRST FEW INPUT CARDS -
 INPUT CARD>!File created by the GAMESS Input Deck Generator Plugin for Avogadro            
 INPUT CARD> $BASIS GBASIS=STO NGAUSS=3 $END                                                
 INPUT CARD> $CONTRL SCFTYP=RHF RUNTYP=OPTIMIZE NZVAR=1 mult=1  ICHARG=0 $END               
 INPUT CARD> $STATPT hssend=.t. OPTTOL=0.0005 NSTEP=50 $END                                 
 INPUT CARD> $STATPT HESS=calc ihrep=5 $END                                                 
 INPUT CARD> $FORCE nvib=2 $END                                                             
 INPUT CARD> $ZMAT DLC=.t. auto=.t. nonvdw(1)=1,6,3,4 $END                                  
 INPUT CARD> $ZMAT IFZMAT(1)=1,1,6,1,3,4 fvalue(1)=2.00,2.00 $END                           
 INPUT CARD>                                                                                
 INPUT CARD> $DATA                                                                          
 INPUT CARD>Title                                                                           
 INPUT CARD>C1                                                                              
 INPUT CARD>C     6.0    -4.45709     0.44326    -0.78471                                   
 INPUT CARD>C     6.0    -5.40973     0.64649     0.16087                                   
 INPUT CARD>C     6.0    -5.53238     1.99339     0.81835                                   
 INPUT CARD>C     6.0    -3.72207     2.37931     1.57149                                   
 INPUT CARD>C     6.0    -2.95166     1.11568     1.30505                                   
 INPUT CARD>C     6.0    -2.66168     0.85579     0.00064                                   
 INPUT CARD>C     6.0    -2.14299     2.01341    -0.76809                                   
 INPUT CARD>C     6.0    -2.39349     3.28756    -0.43293                                   
 INPUT CARD>C     6.0    -3.22971     3.56538     0.76319                                   
 INPUT CARD>O     8.0    -3.53318     4.72506     1.03571                                   
 INPUT CARD>H     1.0    -4.32936    -0.57022    -1.17342                                   
 INPUT CARD>H     1.0    -4.29482     1.26716    -1.48839                                   
 INPUT CARD>H     1.0    -5.84813    -0.20396     0.67692                                   
 INPUT CARD>H     1.0    -5.76319     2.82115     0.14326                                   
 INPUT CARD>H     1.0    -6.17551     1.97742     1.70207                                   
 INPUT CARD>H     1.0    -3.87602     2.61554     2.62654                                   
 INPUT CARD>H     1.0    -3.00929     0.30862     2.02873                                   
 INPUT CARD>H     1.0    -2.21315    -0.11249    -0.24923                                   
 INPUT CARD>H     1.0    -1.52271     1.78424    -1.63075                                   
 INPUT CARD>H     1.0    -2.01910     4.13612    -0.98909                                   
 INPUT CARD> $END                                                                           
    1000000 WORDS OF MEMORY AVAILABLE

     BASIS OPTIONS
     -------------
     GBASIS=STO          IGAUSS=       3      POLAR=NONE    
     NDFUNC=       0     NFFUNC=       0     DIFFSP=       F
     NPFUNC=       0      DIFFS=       F     BASNAM=        


     RUN TITLE
     ---------
 Title                                                                           

 THE POINT GROUP OF THE MOLECULE IS C1      
 THE ORDER OF THE PRINCIPAL AXIS IS     0

 ATOM      ATOMIC                      COORDINATES (BOHR)
           CHARGE         X                   Y                   Z
 C           6.0    -8.4226788026        0.8376399413       -1.4828868798
 C           6.0   -10.2229073676        1.2216889538        0.3040002196
 C           6.0   -10.4546822600        3.7669608867        1.5464572621
 C           6.0    -7.0336924071        4.4962439398        2.9696854924
 C           6.0    -5.5778286089        2.1083294900        2.4661869003
 C           6.0    -5.0298458670        1.6172086030        0.0012094246
 C           6.0    -4.0496638944        3.8047932009       -1.4514796339
 C           6.0    -4.5230402544        6.2125875682       -0.8181190719
 C           6.0    -6.1032669198        6.7375912421        1.4422199766
 O           8.0    -6.6767420653        8.9290686755        1.9572081027
 H           1.0    -8.1813041022       -1.0775595527       -2.2174422685
 H           1.0    -8.1160329666        2.3945851826       -2.8126492629
 H           1.0   -11.0513632406       -0.3854285125        1.2791933156
 H           1.0   -10.8908499152        5.3312004703        0.2707221450
 H           1.0   -11.6700217344        3.7367819626        3.2164459119
 H           1.0    -7.3246157229        4.9426539099        4.9634408958
 H           1.0    -5.6867335176        0.5832072343        3.8337438031
 H           1.0    -4.1822470697       -0.2125752764       -0.4709764079
 H           1.0    -2.8775046588        3.3717246963       -3.0816706545
 H           1.0    -3.8155457418        7.8161334523       -1.8691090772

          INTERNUCLEAR DISTANCES (ANGS.)
          ------------------------------

                1 C          2 C          3 C          4 C          5 C     

   1 C       0.0000000    1.3575518 *  2.4756722 *  3.1369129    2.6618725 *
   2 C       1.3575518 *  0.0000000    1.5038160 *  2.8001268 *  2.7516168 *
   3 C       2.4756722 *  1.5038160 *  0.0000000    1.9983434 *  2.7690012 *
   4 C       3.1369129    2.8001268 *  1.9983434 *  0.0000000    1.5037562 *
   5 C       2.6618725 *  2.7516168 *  2.7690012 *  1.5037562 *  0.0000000  
   6 C       2.0026115 *  2.7606628 *  3.1943234    2.4316887 *  1.3612923 *
   7 C       2.7965525 *  3.6610145    3.7423465    2.8462275 *  2.3995366 *
   8 C       3.5316054    4.0528450    3.6184538    2.5705529 *  2.8371096 *
   9 C       3.6946027    3.6925865    2.7886348 *  1.5174087 *  2.5242730 *
  10 O       4.7435588    4.5740046    3.3920594    2.4135622 *  3.6658333  
  11 H       1.0929557 *  2.1042605 *  3.4621527    4.0746852    3.2989589  
  12 H       1.0955858 *  2.0852612 *  2.7166182 *  3.3057202    3.1032776  
  13 H       2.1190206 *  1.0870912 *  2.2244207 *  3.4631879    3.2443082  
  14 H       2.8672960 *  2.2032681 *  1.0927975 *  2.5300661 *  3.4875614  
  15 H       3.3897919    2.1755668 *  1.0930838 *  2.4895651 *  3.3605698  
  16 H       4.0857153    3.5084117    2.5298518 *  1.0920786 *  2.2023527 *
  17 H       3.1669698    3.0602564    3.2664128    2.2371591 *  1.0855320 *
  18 H       2.3729441 *  3.3109449    4.0732966    3.4352479    2.1141393 *
  19 H       3.3353556    4.4286908    4.7031147    3.9300933    3.3328355  
  20 H       4.4297609    4.9996297    4.4945820    3.5416180    3.9058679  

                6 C          7 C          8 C          9 C         10 O     

   1 C       2.0026115 *  2.7965525 *  3.5316054    3.6946027    4.7435588  
   2 C       2.7606628 *  3.6610145    4.0528450    3.6925865    4.5740046  
   3 C       3.1943234    3.7423465    3.6184538    2.7886348 *  3.3920594  
   4 C       2.4316887 *  2.8462275 *  2.5705529 *  1.5174087 *  2.4135622 *
   5 C       1.3612923 *  2.3995366 *  2.8371096 *  2.5242730 *  3.6658333  
   6 C       0.0000000    1.4832630 *  2.4846356 *  2.8715882 *  4.0990404  
   7 C       1.4832630 *  0.0000000    1.3410968 *  2.4360603 *  3.5410971  
   8 C       2.4846356 *  1.3410968 *  0.0000000    1.4856483 *  2.3499368 *
   9 C       2.8715882 *  2.4360603 *  1.4856483 *  0.0000000    1.2293164 *
  10 O       4.0990404    3.5410971    2.3499368 *  1.2293164 *  0.0000000  
  11 H       2.4885896 *  3.4087608    4.3793133    4.6971136    5.7925943  
  12 H       2.2480173 *  2.3887431 *  2.9683443 *  3.3890835    4.3483616  
  13 H       3.4254764    4.5533335    5.0355751    4.5903692    5.4573768  
  14 H       3.6745537    3.8195354    3.4502770    2.7123260 *  3.0650098  
  15 H       4.0620093    4.7290806    4.5363385    3.4757518    3.8698151  
  16 H       3.3862505    3.8586871    3.4655249    2.1890605 *  2.6642736 *
  17 H       2.1291728 *  3.3880653    3.9131909    3.5009516    4.5569169  
  18 H       1.0959837 *  2.1894266 *  3.4097813    3.9477989    5.1764312  
  19 H       2.1956105 *  1.0869445 *  2.1102136 *  3.4376238    4.4497664  
  20 H       3.4861210    2.1377763 *  1.0814508 *  2.2049503 *  2.5959784 *

               11 H         12 H         13 H         14 H         15 H     

   1 C       1.0929557 *  1.0955858 *  2.1190206 *  2.8672960 *  3.3897919  
   2 C       2.1042605 *  2.0852612 *  1.0870912 *  2.2032681 *  2.1755668 *
   3 C       3.4621527    2.7166182 *  2.2244207 *  1.0927975 *  1.0930838 *
   4 C       4.0746852    3.3057202    3.4631879    2.5300661 *  2.4895651 *
   5 C       3.2989589    3.1032776    3.2443082    3.4875614    3.3605698  
   6 C       2.4885896 *  2.2480173 *  3.4254764    3.6745537    4.0620093  
   7 C       3.4087608    2.3887431 *  4.5533335    3.8195354    4.7290806  
   8 C       4.3793133    2.9683443 *  5.0355751    3.4502770    4.5363385  
   9 C       4.6971136    3.3890835    4.5903692    2.7123260 *  3.4757518  
  10 O       5.7925943    4.3483616    5.4573768    3.0650098    3.8698151  
  11 H       0.0000000    1.8645011 *  2.4216868 *  3.9103587    4.2622978  
  12 H       1.8645011 *  0.0000000    3.0439339    2.6894752 *  3.7710077  
  13 H       2.4216868 *  3.0439339    0.0000000    3.0729950    2.4323916 *
  14 H       3.9103587    2.6894752 *  3.0729950    0.0000000    1.8198288 *
  15 H       4.2622978    3.7710077    2.4323916 *  1.8198288 *  0.0000000  
  16 H       4.9793855    4.3504219    3.9547208    3.1257584    2.5591983 *
  17 H       3.5733331    3.8654262    3.1857717    4.1775315    3.5939601  
  18 H       2.3541429 *  2.7878848 *  3.7522260    4.6220208    4.8862657  
  19 H       3.6918717    2.8235141 *  5.2903250    4.7121083    5.7265658  
  20 H       5.2460380    3.6958265    6.0227365    4.1266903    5.4016731  

               16 H         17 H         18 H         19 H         20 H     

   1 C       4.0857153    3.1669698    2.3729441 *  3.3353556    4.4297609  
   2 C       3.5084117    3.0602564    3.3109449    4.4286908    4.9996297  
   3 C       2.5298518 *  3.2664128    4.0732966    4.7031147    4.4945820  
   4 C       1.0920786 *  2.2371591 *  3.4352479    3.9300933    3.5416180  
   5 C       2.2023527 *  1.0855320 *  2.1141393 *  3.3328355    3.9058679  
   6 C       3.3862505    2.1291728 *  1.0959837 *  2.1956105 *  3.4861210  
   7 C       3.8586871    3.3880653    2.1894266 *  1.0869445 *  2.1377763 *
   8 C       3.4655249    3.9131909    3.4097813    2.1102136 *  1.0814508 *
   9 C       2.1890605 *  3.5009516    3.9477989    3.4376238    2.2049503 *
  10 O       2.6642736 *  4.5569169    5.1764312    4.4497664    2.5959784 *
  11 H       4.9793855    3.5733331    2.3541429 *  3.6918717    5.2460380  
  12 H       4.3504219    3.8654262    2.7878848 *  2.8235141 *  3.6958265  
  13 H       3.9547208    3.1857717    3.7522260    5.2903250    6.0227365  
  14 H       3.1257584    4.1775315    4.6220208    4.7121083    4.1266903  
  15 H       2.5591983 *  3.5939601    4.8862657    5.7265658    5.4016731  
  16 H       0.0000000    2.5358386 *  4.2985274    4.9349413    4.3397115  
  17 H       2.5358386 *  0.0000000    2.4495457 *  4.2165351    4.9736777  
  18 H       4.2985274    2.4495457 *  0.0000000    2.4459946 *  4.3169127  
  19 H       4.9349413    4.2165351    2.4459946 *  0.0000000    2.4878646 *
  20 H       4.3397115    4.9736777    4.3169127    2.4878646 *  0.0000000  

  * ... LESS THAN  3.000


     ATOMIC BASIS SET
     ----------------
 THE CONTRACTED PRIMITIVE FUNCTIONS HAVE BEEN UNNORMALIZED
 THE CONTRACTED BASIS FUNCTIONS ARE NOW NORMALIZED TO UNITY

  SHELL TYPE  PRIMITIVE        EXPONENT          CONTRACTION COEFFICIENT(S)

 C         

      1   S       1            71.6168373    0.154328967295
      1   S       2            13.0450963    0.535328142282
      1   S       3             3.5305122    0.444634542185

      2   L       4             2.9412494   -0.099967229187    0.155916274999
      2   L       5             0.6834831    0.399512826089    0.607683718598
      2   L       6             0.2222899    0.700115468880    0.391957393099

 C         

      3   S       7            71.6168373    0.154328967295
      3   S       8            13.0450963    0.535328142282
      3   S       9             3.5305122    0.444634542185

      4   L      10             2.9412494   -0.099967229187    0.155916274999
      4   L      11             0.6834831    0.399512826089    0.607683718598
      4   L      12             0.2222899    0.700115468880    0.391957393099

 C         

      5   S      13            71.6168373    0.154328967295
      5   S      14            13.0450963    0.535328142282
      5   S      15             3.5305122    0.444634542185

      6   L      16             2.9412494   -0.099967229187    0.155916274999
      6   L      17             0.6834831    0.399512826089    0.607683718598
      6   L      18             0.2222899    0.700115468880    0.391957393099

 C         

      7   S      19            71.6168373    0.154328967295
      7   S      20            13.0450963    0.535328142282
      7   S      21             3.5305122    0.444634542185

      8   L      22             2.9412494   -0.099967229187    0.155916274999
      8   L      23             0.6834831    0.399512826089    0.607683718598
      8   L      24             0.2222899    0.700115468880    0.391957393099

 C         

      9   S      25            71.6168373    0.154328967295
      9   S      26            13.0450963    0.535328142282
      9   S      27             3.5305122    0.444634542185

     10   L      28             2.9412494   -0.099967229187    0.155916274999
     10   L      29             0.6834831    0.399512826089    0.607683718598
     10   L      30             0.2222899    0.700115468880    0.391957393099

 C         

     11   S      31            71.6168373    0.154328967295
     11   S      32            13.0450963    0.535328142282
     11   S      33             3.5305122    0.444634542185

     12   L      34             2.9412494   -0.099967229187    0.155916274999
     12   L      35             0.6834831    0.399512826089    0.607683718598
     12   L      36             0.2222899    0.700115468880    0.391957393099

 C         

     13   S      37            71.6168373    0.154328967295
     13   S      38            13.0450963    0.535328142282
     13   S      39             3.5305122    0.444634542185

     14   L      40             2.9412494   -0.099967229187    0.155916274999
     14   L      41             0.6834831    0.399512826089    0.607683718598
     14   L      42             0.2222899    0.700115468880    0.391957393099

 C         

     15   S      43            71.6168373    0.154328967295
     15   S      44            13.0450963    0.535328142282
     15   S      45             3.5305122    0.444634542185

     16   L      46             2.9412494   -0.099967229187    0.155916274999
     16   L      47             0.6834831    0.399512826089    0.607683718598
     16   L      48             0.2222899    0.700115468880    0.391957393099

 C         

     17   S      49            71.6168373    0.154328967295
     17   S      50            13.0450963    0.535328142282
     17   S      51             3.5305122    0.444634542185

     18   L      52             2.9412494   -0.099967229187    0.155916274999
     18   L      53             0.6834831    0.399512826089    0.607683718598
     18   L      54             0.2222899    0.700115468880    0.391957393099

 O         

     19   S      55           130.7093214    0.154328967295
     19   S      56            23.8088661    0.535328142282
     19   S      57             6.4436083    0.444634542185

     20   L      58             5.0331513   -0.099967229187    0.155916274999
     20   L      59             1.1695961    0.399512826089    0.607683718598
     20   L      60             0.3803890    0.700115468880    0.391957393099

 H         

     21   S      61             3.4252509    0.154328967295
     21   S      62             0.6239137    0.535328142282
     21   S      63             0.1688554    0.444634542185

 H         

     22   S      64             3.4252509    0.154328967295
     22   S      65             0.6239137    0.535328142282
     22   S      66             0.1688554    0.444634542185

 H         

     23   S      67             3.4252509    0.154328967295
     23   S      68             0.6239137    0.535328142282
     23   S      69             0.1688554    0.444634542185

 H         

     24   S      70             3.4252509    0.154328967295
     24   S      71             0.6239137    0.535328142282
     24   S      72             0.1688554    0.444634542185

 H         

     25   S      73             3.4252509    0.154328967295
     25   S      74             0.6239137    0.535328142282
     25   S      75             0.1688554    0.444634542185

 H         

     26   S      76             3.4252509    0.154328967295
     26   S      77             0.6239137    0.535328142282
     26   S      78             0.1688554    0.444634542185

 H         

     27   S      79             3.4252509    0.154328967295
     27   S      80             0.6239137    0.535328142282
     27   S      81             0.1688554    0.444634542185

 H         

     28   S      82             3.4252509    0.154328967295
     28   S      83             0.6239137    0.535328142282
     28   S      84             0.1688554    0.444634542185

 H         

     29   S      85             3.4252509    0.154328967295
     29   S      86             0.6239137    0.535328142282
     29   S      87             0.1688554    0.444634542185

 H         

     30   S      88             3.4252509    0.154328967295
     30   S      89             0.6239137    0.535328142282
     30   S      90             0.1688554    0.444634542185

 TOTAL NUMBER OF BASIS SET SHELLS             =   30
 NUMBER OF CARTESIAN GAUSSIAN BASIS FUNCTIONS =   60
 NUMBER OF ELECTRONS                          =   72
 CHARGE OF MOLECULE                           =    0
 SPIN MULTIPLICITY                            =    1
 NUMBER OF OCCUPIED ORBITALS (ALPHA)          =   36
 NUMBER OF OCCUPIED ORBITALS (BETA )          =   36
 TOTAL NUMBER OF ATOMS                        =   20
 THE NUCLEAR REPULSION ENERGY IS      505.2407839680

     $CONTRL OPTIONS
     ---------------
 SCFTYP=RHF          RUNTYP=OPTIMIZE     EXETYP=RUN     
 MPLEVL=       0     CITYP =NONE         CCTYP =NONE         VBTYP =NONE    
 DFTTYP=NONE         TDDFT =NONE    
 MULT  =       1     ICHARG=       0     NZVAR =       1     COORD =UNIQUE  
 PP    =NONE         RELWFN=NONE         LOCAL =NONE         NUMGRD=       F
 ISPHER=      -1     NOSYM =       0     MAXIT =      30     UNITS =ANGS    
 PLTORB=       F     MOLPLT=       F     AIMPAC=       F     FRIEND=        
 NPRINT=       7     IREST =       0     GEOM  =INPUT   
 NORMF =       0     NORMP =       0     ITOL  =      20     ICUT  =       9
 INTTYP=BEST         GRDTYP=BEST         QMTTOL= 1.0E-06

     $SYSTEM OPTIONS
     ---------------
  REPLICATED MEMORY=     1000000 WORDS (ON EVERY NODE).
 DISTRIBUTED MEMDDI=           0 MILLION WORDS IN AGGREGATE,
 MEMDDI DISTRIBUTED OVER   1 PROCESSORS IS           0 WORDS/PROCESSOR.
 TOTAL MEMORY REQUESTED ON EACH PROCESSOR=     1000000 WORDS.
 TIMLIM=      525600.00 MINUTES, OR     365.0 DAYS.
 PARALL= F  BALTYP=  DLB     KDIAG=    0  COREFL= F
 MXSEQ2=     300 MXSEQ3=     150  mem10=         0

          ----------------
          PROPERTIES INPUT
          ----------------

     MOMENTS            FIELD           POTENTIAL          DENSITY
 IEMOM =       1   IEFLD =       0   IEPOT =       0   IEDEN =       0
 WHERE =COMASS     WHERE =NUCLEI     WHERE =NUCLEI     WHERE =NUCLEI  
 OUTPUT=BOTH       OUTPUT=BOTH       OUTPUT=BOTH       OUTPUT=BOTH    
 IEMINT=       0   IEFINT=       0                     IEDINT=       0
                                                       MORB  =       0
          EXTRAPOLATION IN EFFECT
          SOSCF IN EFFECT
 ORBITAL PRINTING OPTION: NPREO=     1    60     2     1

     -------------------------------
     INTEGRAL TRANSFORMATION OPTIONS
     -------------------------------
     NWORD  =            0
     CUTOFF = 1.0E-09     MPTRAN =       0
     DIRTRF =       F     AOINTS =DUP     

          ----------------------
          INTEGRAL INPUT OPTIONS
          ----------------------
 NOPK  =       1 NORDER=       0 SCHWRZ=       T


 -----------------------------------------------
  STATISTICS ON AUTOMATIC COORDINATE GENERATION 
 -----------------------------------------------
  NUMBER OF USER SPECIFIED BONDS                             2
  NUMBER OF BONDS                                           21
  NUMBER OF ANGLES                                          39
  NUMBER OF TORSIONS                                        62
  NUMBER OF EXTRA COORD.                                     0
  NUMBER OF EXTRA COORD. FOR CONSTRAINTS                     0
  NUMBER OF CONSTRAINED COORD.                               2

  TOTAL NUMBER OF PRIMITIVES                               122
 -----------------------------------------------

   --- ENCODED Z MATRIX ---
 COORD  TYPE   I   J   K   L   M   N
    1      1    1   6
    2      1    3   4
    3      1    1   2
    4      1    1  12
    5      1    1  11
    6      1    2  13
    7      1    2   3
    8      1    3  14
    9      1    3  15
   10      1    4   9
   11      1    4   5
   12      1    4  16
   13      1    5   6
   14      1    5  17
   15      1    6   7
   16      1    6  18
   17      1    7   8
   18      1    7  19
   19      1    8  20
   20      1    8   9
   21      1    9  10
   22      2    1   2  13
   23      2    1   6   7
   24      2    1   6   5
   25      2    1   6  18
   26      2    1   2   3
   27      2    2   1  12
   28      2    2   1  11
   29      2    2   3  15
   30      2    2   3   4
   31      2    2   1   6
   32      2    2   3  14
   33      2    3   2  13
   34      2    3   4  16
   35      2    3   4   5
   36      2    3   4   9
   37      2    4   5  17
   38      2    4   5   6
   39      2    4   9  10
   40      2    4   9   8
   41      2    4   3  15
   42      2    4   3  14
   43      2    5   6   7
   44      2    5   4  16
   45      2    5   4   9
   46      2    5   6  18
   47      2    6   5  17
   48      2    6   1  12
   49      2    6   1  11
   50      2    6   7  19
   51      2    6   7   8
   52      2    7   8  20
   53      2    7   8   9
   54      2    7   6  18
   55      2    8   9  10
   56      2    8   7  19
   57      2    9   4  16
   58      2    9   8  20
   59      2   11   1  12
   60      2   14   3  15
   61      3    1   6   5  17
   62      3    1   6   5   4
   63      3    1   2   3  15
   64      3    1   2   3   4
   65      3    1   2   3  14
   66      3    1   6   7   8
   67      3    1   6   7  19
   68      3    2   3   4   9
   69      3    2   1   6  18
   70      3    2   1   6   5
   71      3    2   1   6   7
   72      3    2   3   4  16
   73      3    2   3   4   5
   74      3    3   4   9  10
   75      3    3   4   9   8
   76      3    3   4   5  17
   77      3    3   4   5   6
   78      3    3   2   1  11
   79      3    3   2   1   6
   80      3    3   2   1  12
   81      3    4   3   2  13
   82      3    4   9   8  20
   83      3    4   9   8   7
   84      3    4   5   6  18
   85      3    4   5   6   7
   86      3    5   4   3  15
   87      3    5   4   3  14
   88      3    5   6   1  11
   89      3    5   6   7  19
   90      3    5   6   7   8
   91      3    5   6   1  12
   92      3    5   4   9   8
   93      3    5   4   9  10
   94      3    6   5   4  16
   95      3    6   5   4   9
   96      3    6   7   8   9
   97      3    6   7   8  20
   98      3    6   1   2  13
   99      3    7   8   9  10
  100      3    7   6   1  11
  101      3    7   6   1  12
  102      3    7   6   5  17
  103      3    8   7   6  18
  104      3    8   9   4  16
  105      3    9   4   5  17
  106      3    9   8   7  19
  107      3    9   4   3  15
  108      3    9   4   3  14
  109      3   10   9   8  20
  110      3   10   9   4  16
  111      3   11   1   2  13
  112      3   11   1   6  18
  113      3   12   1   6  18
  114      3   12   1   2  13
  115      3   13   2   3  15
  116      3   13   2   3  14
  117      3   14   3   4  16
  118      3   15   3   4  16
  119      3   16   4   5  17
  120      3   17   5   6  18
  121      3   18   6   7  19
  122      3   19   7   8  20

          INDEP./SYM. INTERNAL COORDINATES
          --------------------------------
 CRD  1=   1.0000 (  1)
 CRD  2=   1.0000 (  2)
 CRD  3=   0.1191 (  5) -0.1231 (  9) -0.2738 ( 10)  0.2872 ( 15)  0.2351 ( 17)
          -0.1667 ( 20)  0.1242 ( 24) -0.1394 ( 25)  0.1519 ( 30) -0.1291 ( 31)
           0.1483 ( 34) -0.1415 ( 35) -0.1371 ( 39) -0.1351 ( 41) -0.1589 ( 43)
           0.1659 ( 45)  0.1569 ( 49)  0.1778 ( 52)  0.1505 ( 54)  0.1286 ( 55)
          -0.1490 ( 57) -0.1806 ( 58) -0.1133 ( 61) -0.1122 ( 62)  0.1800 ( 68)
           0.1578 ( 71) -0.1138 ( 76) -0.1070 ( 77) -0.1034 ( 79)  0.1255 (100)
           0.1295 (101)  0.1337 (107)  0.1164 (108)
 CRD  4=  -0.1885 (  3)  0.1175 (  6) -0.1692 (  7)  0.1538 ( 10)  0.1262 ( 15)
          -0.1884 ( 17) -0.2338 ( 20)  0.1701 ( 22) -0.3510 ( 26) -0.1123 ( 29)
           0.2332 ( 30)  0.2351 ( 31)  0.1798 ( 33)  0.1299 ( 37) -0.2223 ( 38)
           0.1280 ( 39) -0.1306 ( 42) -0.1336 ( 48)  0.1211 ( 51) -0.2103 ( 55)
          -0.1617 ( 56)  0.1024 ( 81) -0.1044 ( 98) -0.1139 (101)
 CRD  5=   0.2307 (  3) -0.1360 (  7) -0.1176 (  8) -0.1139 ( 11)  0.1686 ( 13)
           0.1077 ( 15)  0.1240 ( 25) -0.1369 ( 28)  0.1056 ( 29) -0.1004 ( 34)
          -0.1236 ( 41) -0.1236 ( 42)  0.1159 ( 47)  0.2115 ( 49)  0.1302 ( 63)
          -0.1758 ( 66) -0.1443 ( 67) -0.1517 ( 74) -0.1912 ( 75)  0.1757 ( 78)
           0.1290 ( 82)  0.1371 ( 83)  0.1129 ( 85) -0.1785 ( 89) -0.2100 ( 90)
          -0.2007 ( 92) -0.1611 ( 93)  0.1060 ( 97)  0.1008 ( 99)  0.1772 (111)
           0.1558 (115) -0.1051 (119) -0.1093 (120)
 CRD  6=  -0.2822 (  3) -0.1411 (  5) -0.3375 (  7) -0.1507 (  9) -0.2897 ( 10)
          -0.1314 ( 11) -0.1060 ( 12) -0.1081 ( 13) -0.2578 ( 15) -0.1401 ( 17)
          -0.1974 ( 39) -0.1896 ( 41)  0.1439 ( 42)  0.1811 ( 48) -0.1458 ( 49)
          -0.1267 ( 50)  0.1769 ( 55) -0.1794 ( 64)  0.1819 ( 79) -0.1720 ( 81)
           0.1844 ( 98) -0.1001 (101)
 CRD  7=  -0.1242 (  3) -0.1111 ( 11)  0.1987 ( 17)  0.2028 ( 19)  0.4291 ( 20)
          -0.1323 ( 28) -0.1223 ( 29) -0.3804 ( 39)  0.1372 ( 41) -0.1219 ( 48)
          -0.1662 ( 50) -0.1821 ( 53)  0.3591 ( 55)  0.1320 ( 56)  0.2520 ( 58)
           0.1087 ( 64) -0.1046 ( 98)
 CRD  8=   0.1333 ( 10)  0.2528 ( 11) -0.3064 ( 13) -0.2205 ( 15)  0.1435 ( 17)
          -0.1306 ( 18)  0.1882 ( 21)  0.1566 ( 22) -0.1459 ( 33)  0.3265 ( 37)
           0.1092 ( 39) -0.1692 ( 40) -0.1016 ( 42) -0.3484 ( 47) -0.2751 ( 50)
           0.1429 ( 51)  0.1321 ( 56)  0.1146 ( 68) -0.1173 ( 89) -0.1090 ( 90)
           0.1346 (102)
 CRD  9=   0.1534 (  3)  0.1560 (  7)  0.1067 (  8) -0.3141 ( 10)  0.1195 ( 13)
          -0.2910 ( 15) -0.2167 ( 17) -0.2132 ( 19) -0.1053 ( 20)  0.1167 ( 24)
          -0.1065 ( 32)  0.1338 ( 34)  0.1110 ( 41)  0.1197 ( 42)  0.1036 ( 48)
          -0.1209 ( 52)  0.1227 ( 53)  0.1262 ( 55)  0.1555 ( 61)  0.1376 ( 62)
          -0.1227 ( 63) -0.1819 ( 76) -0.1522 ( 77) -0.1064 ( 80)  0.1299 ( 85)
           0.1292 ( 93) -0.1570 ( 95)  0.1478 (102) -0.1867 (105) -0.1328 (114)
           0.1291 (116)
 CRD 10=   0.1035 (  3)  0.1176 (  7) -0.3376 ( 17) -0.1244 ( 18)  0.1892 ( 20)
           0.1243 ( 28) -0.1009 ( 39)  0.2438 ( 50)  0.1234 ( 51) -0.4128 ( 52)
           0.1783 ( 55) -0.3671 ( 56)  0.4056 ( 58) -0.1005 ( 62)
 CRD 11=   0.1716 (  6)  0.4779 (  7)  0.1015 (  8)  0.2040 ( 11)  0.1129 ( 14)
           0.1195 ( 19) -0.2253 ( 22) -0.1322 ( 26)  0.2179 ( 29)  0.3540 ( 33)
           0.1249 ( 37) -0.1667 ( 39) -0.1760 ( 41) -0.1664 ( 50)  0.1139 ( 52)
          -0.1268 ( 53)  0.1251 ( 63)  0.1370 ( 86)  0.1791 (107)
 CRD 12=   0.2327 (  3)  0.1197 (  4) -0.1319 (  7)  0.1821 ( 10)  0.2167 ( 11)
           0.1216 ( 12)  0.2993 ( 13)  0.2986 ( 14)  0.1085 ( 15)  0.1678 ( 17)
           0.1783 ( 19)  0.1084 ( 20)  0.2181 ( 22)  0.1685 ( 28) -0.1098 ( 31)
          -0.1517 ( 32) -0.2417 ( 33) -0.1577 ( 38)  0.2037 ( 42)  0.1234 ( 47)
           0.2036 ( 48) -0.1160 ( 49) -0.1369 ( 50) -0.1054 ( 53) -0.1096 ( 63)
          -0.1329 ( 64)  0.1236 ( 79)  0.1426 ( 98)  0.1067 (116)
 CRD 13=  -0.3994 (  3) -0.2094 (  6)  0.1161 (  8)  0.1677 ( 11)  0.1506 ( 14)
           0.1883 ( 15) -0.3075 ( 22)  0.1589 ( 26) -0.1475 ( 28) -0.1022 ( 30)
           0.1619 ( 33)  0.1487 ( 37)  0.1933 ( 42) -0.1224 ( 46)  0.1791 ( 48)
           0.1591 ( 49)  0.1684 ( 50) -0.1443 ( 56)  0.1903 ( 78) -0.1058 ( 81)
           0.1405 ( 88)  0.1375 (100)  0.1153 (111) -0.1416 (114)
 CRD 14=  -0.3210 ( 11) -0.1425 ( 12) -0.2864 ( 13) -0.1755 ( 16) -0.1226 ( 17)
          -0.2310 ( 18)  0.2187 ( 19) -0.1592 ( 20) -0.2252 ( 21)  0.1327 ( 24)
          -0.1098 ( 30) -0.1187 ( 31)  0.1289 ( 35)  0.1630 ( 40) -0.1500 ( 44)
          -0.1388 ( 46)  0.1044 ( 48)  0.1742 ( 51)  0.1586 ( 52) -0.3152 ( 53)
          -0.1238 ( 55)  0.1567 ( 58)
 CRD 15=   0.1480 (  3)  0.1200 (  4) -0.1004 (  5) -0.1300 (  7)  0.1345 (  9)
          -0.1362 ( 10)  0.1770 ( 11) -0.1958 ( 12) -0.2120 ( 13)  0.1487 ( 15)
           0.1518 ( 16) -0.1060 ( 20)  0.1843 ( 27) -0.1998 ( 32) -0.1087 ( 39)
           0.1387 ( 42) -0.1763 ( 48)  0.1187 ( 50)  0.1511 ( 54)  0.1409 ( 55)
          -0.1717 ( 56) -0.1536 ( 57)  0.1041 ( 64)  0.1870 ( 65) -0.1382 ( 69)
          -0.1025 ( 70) -0.1531 ( 72) -0.1348 ( 73)  0.1110 ( 76)  0.2149 ( 80)
           0.1228 (101)  0.1207 (108)  0.2129 (114)  0.1826 (116)  0.1102 (119)
 CRD 16=  -0.1105 (  8)  0.3298 ( 12) -0.2927 ( 16)  0.1380 ( 18) -0.2336 ( 21)
           0.1389 ( 27)  0.1007 ( 29) -0.1554 ( 32)  0.2324 ( 37)  0.1707 ( 40)
          -0.1303 ( 41)  0.1080 ( 43)  0.1720 ( 44) -0.1543 ( 45) -0.1087 ( 46)
          -0.2584 ( 47)  0.1368 ( 49) -0.1093 ( 51)  0.1301 ( 66)  0.1065 ( 67)
          -0.1400 ( 68) -0.1078 ( 71)  0.1482 ( 75)  0.1416 ( 86)  0.1631 ( 87)
           0.1443 ( 91)  0.1381 (104)  0.1123 (105)
 CRD 17=   0.1085 (  3)  0.1737 (  4) -0.1270 (  5)  0.3448 (  6)  0.1211 (  8)
          -0.1209 (  9) -0.1032 ( 11) -0.1265 ( 13) -0.1677 ( 16)  0.2969 ( 18)
          -0.1648 ( 19)  0.2359 ( 21) -0.1524 ( 26) -0.1170 ( 40) -0.1008 ( 41)
           0.1069 ( 43) -0.1266 ( 46)  0.1102 ( 48) -0.1423 ( 51)  0.1191 ( 53)
           0.1121 ( 65)  0.1227 ( 68) -0.1682 ( 69) -0.1674 ( 71)  0.1193 ( 72)
          -0.1236 ( 80) -0.1090 ( 83)  0.1011 ( 96) -0.1148 ( 99)  0.1073 (106)
 CRD 18=   0.1281 (  9)  0.1297 ( 12)  0.1034 ( 15) -0.1270 ( 16)  0.1483 ( 18)
          -0.1362 ( 25)  0.1376 ( 28) -0.1200 ( 29)  0.1056 ( 34)  0.2134 ( 41)
          -0.1535 ( 42)  0.1536 ( 48) -0.2164 ( 49) -0.1974 ( 63) -0.1121 ( 65)
          -0.2262 ( 78) -0.1391 ( 80)  0.1089 ( 83)  0.1394 ( 84) -0.1021 ( 89)
          -0.1254 ( 90) -0.1407 ( 92) -0.1130 ( 93) -0.1454 (103) -0.1675 (104)
          -0.1399 (110) -0.2124 (111) -0.1007 (112) -0.1253 (114) -0.2138 (115)
          -0.1285 (116) -0.1040 (118)  0.1182 (119)  0.1452 (120) -0.1221 (121)
 CRD 19=   0.1266 (  5) -0.1571 (  6) -0.3892 ( 12)  0.3438 ( 14) -0.4419 ( 16)
           0.1661 ( 18) -0.1420 ( 19)  0.1513 ( 21) -0.1548 ( 38)  0.1220 ( 66)
           0.1196 ( 70)  0.1240 ( 91) -0.1012 ( 95) -0.1286 ( 96) -0.1152 ( 97)
          -0.1029 (106)
 CRD 20=  -0.1593 (  4)  0.2984 (  8) -0.1448 (  9)  0.2702 ( 12) -0.1876 ( 16)
          -0.1283 ( 25)  0.1190 ( 34) -0.1132 ( 36)  0.2330 ( 42) -0.1061 ( 44)
          -0.2107 ( 48)  0.2082 ( 65)  0.1152 ( 72) -0.1192 ( 75)  0.1858 ( 80)
           0.1160 ( 82)  0.1253 ( 83)  0.1146 ( 84) -0.1141 ( 90) -0.1426 ( 92)
          -0.1116 ( 93) -0.1744 (103) -0.2217 (104) -0.1907 (110)  0.1983 (114)
           0.1962 (116) -0.1480 (121)
 CRD 21=   0.3419 (  4) -0.2248 (  5)  0.3139 (  6)  0.1924 (  8) -0.2000 (  9)
           0.1218 ( 16)  0.1486 ( 27) -0.1094 ( 28)  0.1408 ( 32) -0.1084 ( 34)
           0.1276 ( 62) -0.1040 ( 69) -0.1233 ( 77)  0.1262 ( 83)  0.1829 ( 84)
           0.1169 ( 85)  0.1090 ( 91) -0.2125 ( 94) -0.1477 ( 95) -0.1702 ( 96)
          -0.1380 ( 97)  0.1326 ( 99)  0.1051 (100)  0.1304 (101) -0.1580 (106)
           0.1023 (109) -0.1458 (119)  0.1146 (120) -0.1258 (122)
 CRD 22=   0.2012 (  4)  0.2848 (  6)  0.1331 (  8)  0.2643 ( 14) -0.1266 ( 16)
          -0.1392 ( 28) -0.1402 ( 29)  0.2206 ( 41)  0.2081 ( 49) -0.1277 ( 62)
          -0.2731 ( 63) -0.1051 ( 64) -0.1645 ( 65)  0.1275 ( 77)  0.2414 ( 78)
           0.1868 ( 80) -0.1085 ( 85)  0.1448 ( 94)  0.1297 ( 95)  0.1551 (111)
           0.1128 (112)  0.1020 (113)  0.1004 (114) -0.1917 (115)  0.1034 (119)
 CRD 23=  -0.4725 (  4) -0.7110 (  5)  0.1462 ( 14)  0.1592 ( 27) -0.2123 ( 59)
          -0.1115 ( 80)  0.1911 ( 91)  0.1887 (101)  0.2003 (113)
 CRD 24=  -0.3293 (  4)  0.3751 (  8) -0.2496 (  9) -0.1228 ( 10)  0.1322 ( 11)
           0.1480 ( 18) -0.2349 ( 21)  0.1104 ( 28) -0.1634 ( 29)  0.1133 ( 32)
           0.1096 ( 63) -0.2229 ( 86) -0.1805 ( 87) -0.1556 ( 88) -0.1067 ( 91)
          -0.1496 (100) -0.1007 (101) -0.2191 (107) -0.1767 (108) -0.1634 (112)
          -0.1144 (113)  0.1060 (115) -0.1880 (117) -0.2304 (118)
 CRD 25=  -0.5455 (  8) -0.6908 (  9) -0.2346 ( 60)  0.1289 ( 65) -0.1437 ( 87)
          -0.1395 (108)  0.1186 (116) -0.1438 (117)
 CRD 26=  -0.2994 (  4)  0.2248 (  6) -0.1300 (  8) -0.3384 ( 14)  0.1595 ( 18)
           0.1166 ( 21)  0.1228 ( 41)  0.1315 ( 49) -0.1137 ( 59) -0.2517 ( 63)
          -0.1284 ( 64) -0.1426 ( 65)  0.2896 ( 78)  0.1299 ( 79)  0.1634 ( 80)
           0.1064 ( 86) -0.1766 ( 88) -0.1845 (100)  0.1112 (107)  0.2030 (111)
          -0.2008 (112) -0.1010 (113) -0.1657 (115)  0.1145 (118)
 CRD 27=  -0.1778 ( 12) -0.1805 ( 25) -0.1179 ( 34) -0.1198 ( 66) -0.2583 ( 82)
          -0.1493 ( 83)  0.2286 ( 84)  0.1326 ( 85) -0.1334 ( 89) -0.1773 ( 90)
           0.1088 ( 92) -0.1822 ( 94) -0.1115 ( 95)  0.1878 ( 96)  0.3037 ( 97)
          -0.1182 ( 99) -0.2846 (103)  0.1805 (104)  0.1423 (106) -0.2272 (109)
           0.1470 (110) -0.1416 (119)  0.1911 (120) -0.2407 (121)  0.2582 (122)
 CRD 28=  -0.1753 ( 10) -0.3513 ( 12)  0.1995 ( 16)  0.1003 ( 17)  0.3989 ( 18)
           0.2901 ( 19) -0.2596 ( 21)  0.1276 ( 34)  0.2627 ( 39) -0.1072 ( 47)
          -0.2890 ( 52) -0.2567 ( 55)  0.2796 ( 58)
 CRD 29=   0.1719 ( 10) -0.1166 ( 11)  0.1506 ( 14)  0.2034 ( 15)  0.3799 ( 16)
          -0.5912 ( 19) -0.1066 ( 20) -0.2649 ( 21) -0.2655 ( 50) -0.1045 ( 52)
           0.2489 ( 56)  0.1343 ( 58)
 CRD 30=   0.2180 ( 12)  0.1497 ( 14)  0.1049 ( 16) -0.1186 ( 42) -0.1136 ( 48)
           0.1230 ( 61) -0.1949 ( 65) -0.2301 ( 67)  0.2331 ( 74) -0.1224 ( 76)
           0.1998 ( 80)  0.2239 ( 82) -0.2440 ( 89)  0.2521 ( 93) -0.2323 ( 97)
          -0.2460 ( 99)  0.1702 (102) -0.1629 (105)  0.2428 (106)  0.1519 (110)
           0.2080 (114) -0.1984 (116) -0.1377 (121)
 CRD 31=   0.1009 (  4) -0.1532 (  5)  0.1096 (  7)  0.1059 (  9)  0.2279 ( 11)
           0.2910 ( 12) -0.2318 ( 13) -0.2797 ( 16)  0.2404 ( 17)  0.2670 ( 18)
          -0.2664 ( 20) -0.2734 ( 21)  0.1283 ( 22) -0.1208 ( 33) -0.2088 ( 37)
           0.2214 ( 47) -0.1663 ( 52)  0.1677 ( 58) -0.1018 (102)  0.1092 (107)
 CRD 32=   0.2459 (  4) -0.1911 (  5) -0.4772 (  6)  0.2344 (  8) -0.1834 (  9)
           0.1600 ( 10) -0.3719 ( 14)  0.1550 ( 15) -0.1067 ( 17)  0.1937 ( 18)
          -0.1661 ( 19)  0.2081 ( 21)  0.1001 ( 37) -0.1020 ( 39) -0.1098 ( 54)
           0.1372 (113) -0.1262 (117)
 CRD 33=  -0.2994 (  3) -0.1939 (  5)  0.3106 (  7)  0.1263 (  9) -0.1396 ( 10)
           0.1139 ( 15) -0.1434 ( 17) -0.1721 ( 18)  0.1997 ( 20)  0.1160 ( 21)
           0.3354 ( 22) -0.1050 ( 28)  0.1179 ( 29) -0.3473 ( 33) -0.1102 ( 55)
           0.1082 ( 56)  0.1639 ( 59) -0.1369 ( 60) -0.1016 ( 87) -0.1255 ( 91)
          -0.1554 (101) -0.1304 (108) -0.1849 (113)  0.1013 (115)  0.1305 (116)
          -0.1450 (117)
 CRD 34=   0.1516 (  3) -0.1329 (  7) -0.2187 ( 10)  0.1435 ( 11) -0.1125 ( 13)
           0.2538 ( 15) -0.1132 ( 16) -0.2206 ( 18) -0.1150 ( 19)  0.1280 ( 20)
           0.1933 ( 21)  0.1141 ( 33) -0.2096 ( 37)  0.1934 ( 39)  0.1246 ( 44)
          -0.1270 ( 46)  0.2096 ( 47) -0.2134 ( 50) -0.1824 ( 52)  0.1270 ( 54)
          -0.2752 ( 55)  0.2761 ( 56) -0.1388 ( 57)  0.2075 ( 58) -0.1088 (112)
 CRD 35=   0.1929 ( 10)  0.1756 ( 11) -0.2836 ( 12)  0.1973 ( 13) -0.2595 ( 14)
           0.1274 ( 15) -0.2789 ( 16)  0.2414 ( 17) -0.3439 ( 18) -0.2543 ( 19)
           0.2305 ( 20) -0.4154 ( 21)  0.1302 ( 82) -0.1265 ( 97)
 CRD 36=   0.1277 (  3)  0.1477 (  4) -0.4524 (  6)  0.1184 (  8)  0.3408 ( 14)
          -0.1223 ( 15) -0.1335 ( 18)  0.1178 ( 19) -0.1712 ( 21) -0.1396 ( 26)
           0.1054 ( 53) -0.1557 ( 69)  0.1628 ( 72)  0.1337 ( 86) -0.1423 ( 88)
          -0.1341 (100)  0.1211 (107)  0.1043 (111) -0.2114 (112) -0.1285 (113)
           0.1238 (117)  0.1987 (118)
 CRD 37=   0.1493 (  8) -0.1451 (  9)  0.1266 ( 14)  0.1177 ( 18) -0.1227 ( 20)
           0.1048 ( 21) -0.1235 ( 25) -0.1180 ( 32) -0.1520 ( 34)  0.1335 ( 41)
          -0.1236 ( 63)  0.2241 ( 81)  0.2049 ( 82)  0.1237 ( 87) -0.2126 ( 97)
          -0.2358 ( 98)  0.1121 (109)  0.1848 (110) -0.1423 (111) -0.2896 (114)
           0.1017 (115)  0.2519 (116)  0.1023 (117) -0.1707 (121)
 CRD 38=  -0.1270 (  3)  0.1552 (  7)  0.1064 ( 17)  0.1096 ( 21)  0.1678 ( 25)
           0.1243 ( 28) -0.1291 ( 29) -0.1461 ( 34)  0.1224 ( 41)  0.1480 ( 42)
           0.1089 ( 44) -0.1465 ( 48) -0.1386 ( 49) -0.1381 ( 63)  0.1251 ( 65)
          -0.1019 ( 67) -0.1030 ( 74) -0.1600 ( 78)  0.1251 ( 80) -0.2285 ( 84)
          -0.1487 ( 89) -0.1659 ( 93) -0.2035 ( 94)  0.1332 ( 99)  0.2056 (103)
           0.2010 (104)  0.1535 (106)  0.1513 (109) -0.1205 (111)  0.1646 (114)
          -0.1816 (115) -0.2245 (119) -0.2133 (120)  0.1089 (121)  0.1342 (122)
 CRD 39=  -0.1074 (  7)  0.1078 (  8)  0.1034 ( 10) -0.2553 ( 11)  0.2689 ( 13)
          -0.1670 ( 15)  0.4373 ( 17) -0.1848 ( 18) -0.3787 ( 20)  0.1764 ( 21)
           0.1214 ( 37)  0.1049 ( 40) -0.1317 ( 47)  0.1077 ( 50) -0.2284 ( 52)
           0.2394 ( 58) -0.1043 ( 69) -0.1095 ( 72) -0.1198 (113) -0.1192 (117)
           0.1263 (119)  0.1084 (120)
 CRD 40=   0.1285 ( 10)  0.1616 ( 13) -0.2169 ( 14)  0.1644 ( 15) -0.2666 ( 17)
          -0.1159 ( 18)  0.4028 ( 19) -0.2799 ( 20) -0.1277 ( 38) -0.1322 ( 40)
          -0.1434 ( 50) -0.1613 ( 51) -0.2031 ( 52)  0.3145 ( 53)  0.2190 ( 55)
           0.3043 ( 56) -0.1113 ( 58)
 CRD 41=  -0.1701 (  4)  0.2343 (  8) -0.1388 (  9)  0.3128 ( 10) -0.1690 ( 12)
          -0.1722 ( 15) -0.1328 ( 17)  0.1235 ( 18) -0.1360 ( 21)  0.1740 ( 29)
          -0.1633 ( 37)  0.1759 ( 44) -0.1553 ( 46)  0.1500 ( 47)  0.1039 ( 55)
          -0.1201 ( 57) -0.1239 ( 58) -0.1261 ( 69) -0.1884 ( 72) -0.1321 ( 78)
           0.2154 ( 86)  0.1073 ( 87)  0.1519 ( 88) -0.1435 ( 93)  0.1011 ( 94)
           0.1235 ( 99)  0.1175 (100)  0.1042 (103)  0.1188 (107) -0.1136 (111)
           0.1124 (122)
 CRD 42=   0.1416 (  5) -0.1104 (  6)  0.1303 (  9) -0.2073 ( 15)  0.1077 ( 16)
          -0.1283 ( 19)  0.1761 ( 20) -0.1274 ( 23) -0.1383 ( 26)  0.1055 ( 27)
          -0.1093 ( 36) -0.1254 ( 38)  0.1038 ( 39)  0.1003 ( 52) -0.1019 ( 53)
          -0.1240 ( 56) -0.1404 ( 60) -0.1577 ( 61)  0.1283 ( 65)  0.1289 ( 76)
          -0.1125 ( 80)  0.1511 ( 82) -0.1211 ( 87) -0.1495 ( 89)  0.1184 ( 91)
          -0.1815 ( 97) -0.2190 (102)  0.1511 (104)  0.1856 (105)  0.1365 (106)
           0.1096 (107)  0.1521 (109)  0.1455 (110) -0.1296 (115) -0.1300 (117)
           0.1235 (119) -0.1415 (120) -0.1894 (121)
 CRD 43=   0.2759 (  3) -0.1684 (  5)  0.1457 (  7) -0.1466 (  8)  0.1624 ( 11)
          -0.1237 ( 12)  0.1389 ( 13) -0.1328 ( 15) -0.1087 ( 16)  0.1601 ( 18)
           0.1251 ( 21) -0.1307 ( 27) -0.1084 ( 28) -0.1113 ( 29)  0.1143 ( 40)
           0.1517 ( 51) -0.1029 ( 53)  0.1664 ( 54)  0.1102 ( 57)  0.2310 ( 59)
           0.1813 ( 60) -0.1357 ( 81)  0.1077 ( 88) -0.1318 ( 91)  0.1018 ( 98)
           0.1894 (100) -0.1310 (102) -0.1871 (107) -0.1227 (110) -0.2041 (113)
           0.1639 (114) -0.1600 (116)  0.1340 (117)
 CRD 44=  -0.2284 (  3)  0.1780 (  5)  0.2544 (  7) -0.1931 (  9)  0.1602 ( 11)
          -0.1440 ( 12)  0.1185 ( 17) -0.1471 ( 20)  0.1515 ( 22)  0.1552 ( 27)
          -0.1461 ( 32) -0.1555 ( 33) -0.1067 ( 39)  0.1033 ( 40)  0.1184 ( 57)
          -0.1043 ( 59)  0.1219 ( 60) -0.1483 ( 68) -0.1053 ( 71)  0.1466 ( 74)
           0.1006 ( 85)  0.1612 ( 87) -0.1566 ( 90)  0.1298 ( 91) -0.1413 ( 92)
           0.1046 ( 98) -0.1467 ( 99)  0.1433 (105) -0.1416 (106) -0.1064 (107)
          -0.1532 (109)  0.1296 (110) -0.1095 (116)  0.1383 (117)  0.1198 (121)
          -0.1348 (122)
 CRD 45=  -0.2297 (  3)  0.1811 (  4)  0.1786 ( 11) -0.1335 ( 12) -0.1053 ( 13)
          -0.1227 ( 20)  0.1033 ( 21)  0.1276 ( 28)  0.1270 ( 34) -0.1163 ( 39)
          -0.1415 ( 45) -0.2201 ( 59)  0.1083 ( 63) -0.1406 ( 67) -0.1111 ( 68)
           0.1965 ( 75) -0.1053 ( 77)  0.1099 ( 78) -0.1395 ( 83) -0.1728 ( 88)
           0.1333 ( 92) -0.1383 ( 93) -0.1013 ( 97)  0.1269 ( 99) -0.1394 (100)
          -0.1272 (102)  0.1760 (106) -0.1303 (108)  0.2188 (109) -0.2722 (110)
           0.1108 (111) -0.1119 (112)  0.1169 (113)  0.1094 (115) -0.1907 (121)
 CRD 46=  -0.1330 (  6)  0.2515 (  7) -0.2161 (  8) -0.1081 ( 14) -0.1202 ( 15)
           0.1936 ( 16)  0.1202 ( 17)  0.1120 ( 22) -0.1248 ( 26) -0.1100 ( 28)
          -0.1760 ( 29)  0.1758 ( 43)  0.1492 ( 47)  0.1270 ( 50)  0.1564 ( 60)
          -0.1655 ( 62) -0.1120 ( 64)  0.1100 ( 66)  0.1103 ( 68) -0.1548 ( 71)
          -0.1118 ( 74)  0.1239 ( 77)  0.1059 ( 78) -0.1577 ( 86)  0.1279 ( 88)
           0.1388 ( 91)  0.1236 ( 94)  0.1345 (102) -0.1686 (105) -0.1287 (107)
          -0.1006 (110)  0.1224 (115) -0.1881 (118)  0.1851 (120) -0.1163 (121)
           0.1149 (122)
 CRD 47=   0.1539 (  3) -0.1140 (  4) -0.1368 (  9) -0.3149 ( 13)  0.2168 ( 15)
          -0.1552 ( 18) -0.1509 ( 23)  0.1518 ( 24) -0.1048 ( 31) -0.1033 ( 32)
           0.1836 ( 46) -0.1607 ( 51) -0.2333 ( 54)  0.1725 ( 59)  0.1317 ( 66)
           0.1605 ( 69) -0.1446 ( 71) -0.1010 ( 78) -0.1223 ( 91) -0.2097 (101)
           0.1269 (109)  0.2924 (112) -0.1145 (115) -0.1227 (116) -0.1525 (121)
 CRD 48=   0.1971 (  4) -0.1537 (  5) -0.1319 (  8)  0.2623 ( 10) -0.2294 ( 11)
           0.1031 ( 14) -0.1112 ( 22) -0.1288 ( 27)  0.1370 ( 28)  0.1427 ( 35)
          -0.1773 ( 36)  0.1831 ( 44) -0.1776 ( 57)  0.1243 ( 60)  0.1295 ( 63)
           0.1150 ( 69)  0.1215 ( 70) -0.1931 ( 72) -0.1561 ( 77) -0.1327 ( 79)
           0.1406 ( 87) -0.1208 (100)  0.1222 (108)  0.1148 (110)  0.1363 (111)
          -0.1510 (117) -0.3108 (118)  0.1705 (119)
 CRD 49=   0.1610 (  3) -0.1831 (  7)  0.2478 (  9)  0.1084 ( 10)  0.1403 ( 11)
          -0.2308 ( 12) -0.1724 ( 13) -0.1062 ( 20)  0.1056 ( 30)  0.1494 ( 32)
           0.1253 ( 33)  0.1016 ( 34) -0.1080 ( 35) -0.1247 ( 37) -0.1111 ( 39)
           0.1008 ( 40) -0.1380 ( 45) -0.1733 ( 60) -0.1165 ( 64)  0.1356 ( 65)
           0.1081 ( 72)  0.2127 ( 73)  0.1979 ( 74) -0.1588 ( 76) -0.1386 ( 81)
           0.1484 ( 86) -0.1510 ( 92)  0.1072 ( 95) -0.1050 (101) -0.2787 (108)
           0.1135 (116) -0.1618 (117)
 CRD 50=  -0.1345 (  4)  0.1845 (  5)  0.1170 (  7)  0.1310 ( 10) -0.1847 ( 11)
           0.1345 ( 14)  0.1765 ( 15) -0.2161 ( 16)  0.1157 ( 22) -0.1533 ( 26)
           0.1282 ( 27) -0.1356 ( 28)  0.2040 ( 38) -0.1526 ( 43)  0.1306 ( 44)
           0.1866 ( 46) -0.1480 ( 47)  0.1089 ( 48)  0.2018 ( 61)  0.1051 ( 62)
          -0.2744 ( 70)  0.1214 ( 73)  0.1260 ( 79) -0.1162 ( 81) -0.1120 ( 88)
           0.1216 ( 89)  0.1176 ( 90)  0.2100 ( 98)  0.1228 (100)  0.1482 (101)
           0.1090 (113) -0.1165 (118)  0.1137 (120)
 CRD 51=   0.2471 ( 23) -0.1520 ( 24)  0.1038 ( 31)  0.1735 ( 36) -0.2372 ( 66)
           0.1003 ( 70) -0.1374 ( 74)  0.1017 ( 77) -0.2840 ( 83)  0.1123 ( 85)
          -0.2039 ( 90)  0.1713 ( 92)  0.2970 ( 96)  0.1609 (102) -0.1189 (105)
           0.2768 (109) -0.1262 (110)  0.1970 (121) -0.3885 (122)
 CRD 52=  -0.2023 ( 15) -0.2355 ( 23) -0.2100 ( 36)  0.1579 ( 45)  0.1082 ( 47)
           0.2468 ( 61)  0.1366 ( 67) -0.1239 ( 73) -0.2689 ( 76) -0.1206 ( 83)
          -0.2544 ( 85)  0.1573 ( 89) -0.1302 ( 93)  0.2635 ( 95)  0.1690 ( 96)
          -0.1680 (103)  0.1072 (104)  0.1106 (109) -0.2706 (119)  0.2540 (120)
          -0.1749 (122)
 CRD 53=   0.1440 ( 23) -0.1307 ( 24) -0.1114 ( 27)  0.1246 ( 31) -0.1039 ( 32)
           0.1440 ( 36) -0.1552 ( 62)  0.2114 ( 64)  0.2580 ( 65)  0.1068 ( 70)
           0.1629 ( 77) -0.2121 ( 79) -0.2947 ( 80) -0.1681 ( 81)  0.1332 ( 83)
           0.1348 ( 90) -0.1621 ( 96)  0.1784 ( 98)  0.3543 (111) -0.2860 (115)
          -0.1216 (116)  0.1285 (120)  0.1348 (122)
 CRD 54=  -0.2003 ( 10)  0.1095 ( 15)  0.1498 ( 22) -0.1523 ( 23) -0.1492 ( 24)
           0.1416 ( 25) -0.1706 ( 30)  0.2094 ( 31)  0.1474 ( 32) -0.1277 ( 33)
           0.2441 ( 35) -0.2678 ( 36) -0.1997 ( 39)  0.1482 ( 40)  0.1222 ( 41)
           0.1653 ( 43) -0.1104 ( 48) -0.1223 ( 49)  0.1438 ( 50) -0.1524 ( 51)
           0.1592 ( 61) -0.1395 ( 67)  0.1215 ( 68)  0.1633 ( 70)  0.1132 ( 71)
           0.1581 ( 73) -0.1266 ( 74) -0.1408 ( 75) -0.1170 ( 85)  0.1186 ( 90)
           0.1289 ( 95)  0.1062 (120)

 THE DETERMINANT OF THE G MATRIX IS 10**(   -20)


                     --------------------
                     INTERNAL COORDINATES
                     --------------------

                 - - ATOMS - -         COORDINATE      COORDINATE
 NO.   TYPE    I  J  K  L  M  N        (BOHR,RAD)       (ANG,DEG)
 ----------------------------------------------------------------
   1 STRETCH   1  6                     3.7843869       2.0026115
   2 STRETCH   3  4                     3.7763215       1.9983434
   3 STRETCH   1  2                     2.5654010       1.3575518
   4 STRETCH   1 12                     2.0703570       1.0955858
   5 STRETCH   1 11                     2.0653868       1.0929557
   6 STRETCH   2 13                     2.0543046       1.0870912
   7 STRETCH   2  3                     2.8418002       1.5038160
   8 STRETCH   3 14                     2.0650878       1.0927975
   9 STRETCH   3 15                     2.0656289       1.0930838
  10 STRETCH   4  9                     2.8674867       1.5174087
  11 STRETCH   4  5                     2.8416871       1.5037562
  12 STRETCH   4 16                     2.0637294       1.0920786
  13 STRETCH   5  6                     2.5724694       1.3612923
  14 STRETCH   5 17                     2.0513581       1.0855320
  15 STRETCH   6  7                     2.8029607       1.4832630
  16 STRETCH   6 18                     2.0711089       1.0959837
  17 STRETCH   7  8                     2.5343055       1.3410968
  18 STRETCH   7 19                     2.0540274       1.0869445
  19 STRETCH   8 20                     2.0436457       1.0814508
  20 STRETCH   8  9                     2.8074682       1.4856483
  21 STRETCH   9 10                     2.3230712       1.2293164
  22 BEND      1  2 13                  2.0903903     119.7705390
  23 BEND      1  6  7                  1.8452679     105.7260620
  24 BEND      1  6  5                  1.7968421     102.9514692
  25 BEND      1  6 18                  1.6664462      95.4803364
  26 BEND      1  2  3                  2.0896040     119.7254896
  27 BEND      2  1 12                  2.0249812     116.0228750
  28 BEND      2  1 11                  2.0584439     117.9401455
  29 BEND      2  3 15                  1.9696562     112.8529891
  30 BEND      2  3  4                  1.8378179     105.2992082
  31 BEND      2  1  6                  1.9019515     108.9737935
  32 BEND      2  3 14                  2.0103834     115.1864854
  33 BEND      3  2 13                  2.0490723     117.4031972
  34 BEND      3  4 16                  1.8526872     106.1511580
  35 BEND      3  4  5                  1.8080745     103.5950404
  36 BEND      3  4  9                  1.8174232     104.1306782
  37 BEND      4  5 17                  2.0708010     118.6481576
  38 BEND      4  5  6                  2.0256621     116.0618908
  39 BEND      4  9 10                  2.1402557     122.6276196
  40 BEND      4  9  8                  2.0548143     117.7321859
  41 BEND      4  3 15                  1.8040318     103.3634071
  42 BEND      4  3 14                  1.8523808     106.1335998
  43 BEND      5  6  7                  2.0065623     114.9675488
  44 BEND      5  4 16                  2.0099439     115.1613007
  45 BEND      5  4  9                  1.9781788     113.3412981
  46 BEND      5  6 18                  2.0649727     118.3142224
  47 BEND      6  5 17                  2.1038581     120.5421884
  48 BEND      6  1 12                  1.5349690      87.9472442
  49 BEND      6  1 11                  1.7984729     103.0449091
  50 BEND      6  7 19                  2.0334630     116.5088465
  51 BEND      6  7  8                  2.1491584     123.1377084
  52 BEND      7  8 20                  2.1559071     123.5243791
  53 BEND      7  8  9                  2.0760326     118.9479059
  54 BEND      7  6 18                  2.0133467     115.3562687
  55 BEND      8  9 10                  2.0872972     119.5933190
  56 BEND      8  7 19                  2.1004714     120.3481483
  57 BEND      9  4 16                  1.9728241     113.0344962
  58 BEND      9  8 20                  2.0512451     117.5276870
  59 BEND     11  1 12                  2.0393486     116.8460655
  60 BEND     14  3 15                  1.9673462     112.7206332
  61 TORSION   1  6  5 17               1.5073669      86.3657598
  62 TORSION   1  6  5  4              -1.2024927     -68.8977554
  63 TORSION   1  2  3 15              -2.9232178    -167.4880412
  64 TORSION   1  2  3  4              -0.9676806     -55.4440115
  65 TORSION   1  2  3 14               1.0665250      61.1073789
  66 TORSION   1  6  7  8               1.5436159      88.4426775
  67 TORSION   1  6  7 19              -1.6125690     -92.3933984
  68 TORSION   2  3  4  9               1.9848300     113.7223797
  69 TORSION   2  1  6 18               2.1911069     125.5411775
  70 TORSION   2  1  6  5               0.0839775       4.8115582
  71 TORSION   2  1  6  7              -2.0275029    -116.1673567
  72 TORSION   2  3  4 16              -2.2120448    -126.7408311
  73 TORSION   2  3  4  5              -0.0880235      -5.0433774
  74 TORSION   3  4  9 10               1.4609467      83.7060821
  75 TORSION   3  4  9  8              -1.6369593     -93.7908565
  76 TORSION   3  4  5 17              -1.5084877     -86.4299796
  77 TORSION   3  4  5  6               1.2099256      69.3236297
  78 TORSION   3  2  1 11               3.0398949     174.1731470
  79 TORSION   3  2  1  6               0.9995037      57.2673420
  80 TORSION   3  2  1 12              -0.6973354     -39.9543750
  81 TORSION   4  3  2 13               1.8258665     104.6144464
  82 TORSION   4  9  8 20              -3.1095269    -178.1627685
  83 TORSION   4  9  8  7               0.0330913       1.8959915
  84 TORSION   4  5  6 18              -3.0107318    -172.5022277
  85 TORSION   4  5  6  7               0.7949986      45.5500668
  86 TORSION   5  4  3 15               1.9820915     113.5654777
  87 TORSION   5  4  3 14              -2.2273824    -127.6196088
  88 TORSION   5  6  1 11              -2.1157171    -121.2216614
  89 TORSION   5  6  7 19               2.7014114     154.7794714
  90 TORSION   5  6  7  8              -0.4255890     -24.3844527
  91 TORSION   5  6  1 12               2.1236808     121.6779466
  92 TORSION   5  4  9  8               0.3156834      18.0873242
  93 TORSION   5  4  9 10              -2.8695960    -164.4157371
  94 TORSION   6  5  4 16              -3.0582008    -175.2219980
  95 TORSION   6  5  4  9              -0.7484155     -42.8810507
  96 TORSION   6  7  8  9              -0.0004352      -0.0249358
  97 TORSION   6  7  8 20              -3.1409369    -179.9624305
  98 TORSION   6  1  2 13              -1.7857679    -102.3169653
  99 TORSION   7  8  9 10              -3.0661901    -175.6797523
 100 TORSION   7  6  1 11               2.0559878     117.7994237
 101 TORSION   7  6  1 12               0.0122004       0.6990317
 102 TORSION   7  6  5 17              -2.7783271    -159.1864180
 103 TORSION   8  7  6 18              -2.9230731    -167.4797526
 104 TORSION   8  9  4 16               2.6433660     151.4537140
 105 TORSION   9  4  5 17               2.8163565     161.3653399
 106 TORSION   9  8  7 19              -3.1268962    -179.1579574
 107 TORSION   9  4  3 15              -2.2282403    -127.6687652
 108 TORSION   9  4  3 14              -0.1545289      -8.8538517
 109 TORSION  10  9  8 20               0.0743770       4.2614878
 110 TORSION  10  9  4 16              -0.5419133     -31.0493473
 111 TORSION  11  1  2 13               0.2546233      14.5888397
 112 TORSION  11  1  6 18              -0.0085878      -0.4920421
 113 TORSION  12  1  6 18              -2.0523752    -117.5924341
 114 TORSION  12  1  2 13               2.8005783     160.4613177
 115 TORSION  13  2  3 15              -0.1296707      -7.4295833
 116 TORSION  13  2  3 14              -2.4231133    -138.8341632
 117 TORSION  14  3  4 16               1.9317817     110.6829375
 118 TORSION  15  3  4 16              -0.1419298      -8.1319760
 119 TORSION  16  4  5 17               0.5065712      29.0243926
 120 TORSION  17  5  6 18              -0.3008723     -17.2387126
 121 TORSION  18  6  7 19               0.2039273      11.6841716
 122 TORSION  19  7  8 20               0.0157873       0.9045479

     ------------------------------------------
     THE POINT GROUP IS C1 , NAXIS= 0, ORDER= 1
     ------------------------------------------

     DIMENSIONS OF THE SYMMETRY SUBSPACES ARE
 A   =   60

 ..... DONE SETTING UP THE RUN .....
 STEP CPU TIME =     0.08 TOTAL CPU TIME =          0.1 (      0.0 MIN)
 TOTAL WALL CLOCK TIME=          0.1 SECONDS, CPU UTILIZATION IS    80.00%


          -----------------------------
          STATIONARY POINT LOCATION RUN
          -----------------------------


           ** GEOMETRY CONSTRAINTS ARE BEING APPLIED. **

          TRANSFORMING DISPLACEMENT FROM INTERNALS TO CARTESIANS
          THE ROOT MEAN SQUARE ERROR IN ITERATION   1 IS   0.00000138
          THE ROOT MEAN SQUARE ERROR IN ITERATION   2 IS   0.00000000
 WARNING! THE RADIUS IN CARTESIANS IS    0.00946
 OBTAINING INITIAL HESSIAN, HESS=CALC    

     ---------------------------------
     HESSIAN MATRIX CONTROL PARAMETERS
     ---------------------------------
     METHOD=ANALYTIC   NVIB  =       2   VIBSIZ= 0.01000
     RDHESS=       F   PURIFY=       F   PRTIFC=       F
     VIBANL=       F   DECOMP=       F   PROJCT=       F
     SCLFAC= 1.00000   PRTSCN=       F   NPRT  =       0
     PULCOR=       F   NPUN  =       0   REDOVB=       T
     HSSTYP=GENERAL 
 Old integral subroutine is used

     ------------------------------
     CPHF RESPONSE SOLUTION OPTIONS
     ------------------------------
     POLAR  =       F     NWORD  =       0
     CPHF   =AO      

          ********************
          1 ELECTRON INTEGRALS
          ********************
 ...... END OF ONE-ELECTRON INTEGRALS ......
 STEP CPU TIME =     0.04 TOTAL CPU TIME =          0.1 (      0.0 MIN)
 TOTAL WALL CLOCK TIME=          0.2 SECONDS, CPU UTILIZATION IS    75.00%

          -------------
          GUESS OPTIONS
          -------------
          GUESS =HUCKEL            NORB  =       0          NORDER=       0
          MIX   =       F          PRTMO =       F          PUNMO =       F
          TOLZ  = 1.0E-08          TOLE  = 1.0E-05
          SYMDEN=       F          PURIFY=       F

 INITIAL GUESS ORBITALS GENERATED BY HUCKEL   ROUTINE.
 HUCKEL GUESS REQUIRES     53820 WORDS.

 SYMMETRIES FOR INITIAL GUESS ORBITALS FOLLOW.   BOTH SET(S).
    36 ORBITALS ARE OCCUPIED (   10 CORE ORBITALS).
    11=A       12=A       13=A       14=A       15=A       16=A       17=A   
    18=A       19=A       20=A       21=A       22=A       23=A       24=A   
    25=A       26=A       27=A       28=A       29=A       30=A       31=A   
    32=A       33=A       34=A       35=A       36=A       37=A       38=A   
    39=A       40=A       41=A       42=A       43=A       44=A       45=A   
    46=A   
 ...... END OF INITIAL ORBITAL SELECTION ......
 STEP CPU TIME =     0.03 TOTAL CPU TIME =          0.2 (      0.0 MIN)
 TOTAL WALL CLOCK TIME=          0.2 SECONDS, CPU UTILIZATION IS    83.33%

                    ----------------------
                    AO INTEGRAL TECHNOLOGY
                    ----------------------
     S,P,L SHELL ROTATED AXIS INTEGRALS, REPROGRAMMED BY
        KAZUYA ISHIMURA (IMS) AND JOSE SIERRA (SYNSTAR).
     S,P,D,L SHELL ROTATED AXIS INTEGRALS PROGRAMMED BY
        KAZUYA ISHIMURA (INSTITUTE FOR MOLECULAR SCIENCE).
     S,P,D,F,G SHELL TO TOTAL QUARTET ANGULAR MOMENTUM SUM 5,
        ERIC PROGRAM BY GRAHAM FLETCHER (ELORET AND NASA ADVANCED
        SUPERCOMPUTING DIVISION, AMES RESEARCH CENTER).
     S,P,D,F,G,L SHELL GENERAL RYS QUADRATURE PROGRAMMED BY
        MICHEL DUPUIS (PACIFIC NORTHWEST NATIONAL LABORATORY).

          --------------------
          2 ELECTRON INTEGRALS
          --------------------

 THE -PK- OPTION IS OFF, THE INTEGRALS ARE NOT IN SUPERMATRIX FORM.
 STORING   15000 INTEGRALS/RECORD ON DISK, USING 12 BYTES/INTEGRAL.
 TWO ELECTRON INTEGRAL EVALUATION REQUIRES   89821 WORDS OF MEMORY.
 SCHWARZ INEQUALITY OVERHEAD:      1797 INTEGRALS, T=        0.00
 II,JST,KST,LST =  1  1  1  1 NREC =         1 INTLOC =    1
 II,JST,KST,LST =  2  1  1  1 NREC =         1 INTLOC =    2
 II,JST,KST,LST =  3  1  1  1 NREC =         1 INTLOC =   34
 II,JST,KST,LST =  4  1  1  1 NREC =         1 INTLOC =  144
 II,JST,KST,LST =  5  1  1  1 NREC =         1 INTLOC = 1366
 II,JST,KST,LST =  6  1  1  1 NREC =         1 INTLOC = 1954
 II,JST,KST,LST =  7  1  1  1 NREC =         1 INTLOC = 6854
 II,JST,KST,LST =  8  1  1  1 NREC =         1 INTLOC = 8471
 II,JST,KST,LST =  9  1  1  1 NREC =         2 INTLOC = 5879
 II,JST,KST,LST = 10  1  1  1 NREC =         2 INTLOC = 9623
 II,JST,KST,LST = 11  1  1  1 NREC =         4 INTLOC = 4955
 II,JST,KST,LST = 12  1  1  1 NREC =         4 INTLOC =12088
 II,JST,KST,LST = 13  1  1  1 NREC =         7 INTLOC =12141
 II,JST,KST,LST = 14  1  1  1 NREC =         8 INTLOC = 8176
 II,JST,KST,LST = 15  1  1  1 NREC =        13 INTLOC = 4919
 II,JST,KST,LST = 16  1  1  1 NREC =        14 INTLOC = 6970
 II,JST,KST,LST = 17  1  1  1 NREC =        21 INTLOC =10031
 II,JST,KST,LST = 18  1  1  1 NREC =        23 INTLOC = 5944
 II,JST,KST,LST = 19  1  1  1 NREC =        33 INTLOC =13101
 II,JST,KST,LST = 20  1  1  1 NREC =        35 INTLOC = 8492
 II,JST,KST,LST = 21  1  1  1 NREC =        47 INTLOC =10065
 II,JST,KST,LST = 22  1  1  1 NREC =        51 INTLOC = 5635
 II,JST,KST,LST = 23  1  1  1 NREC =        55 INTLOC =10491
 II,JST,KST,LST = 24  1  1  1 NREC =        59 INTLOC =12863
 II,JST,KST,LST = 25  1  1  1 NREC =        64 INTLOC =10979
 II,JST,KST,LST = 26  1  1  1 NREC =        69 INTLOC =10447
 II,JST,KST,LST = 27  1  1  1 NREC =        75 INTLOC = 2029
 II,JST,KST,LST = 28  1  1  1 NREC =        80 INTLOC =11672
 II,JST,KST,LST = 29  1  1  1 NREC =        86 INTLOC = 9197
 II,JST,KST,LST = 30  1  1  1 NREC =        92 INTLOC =10893
 SCHWARZ INEQUALITY TEST SKIPPED       25090 INTEGRAL BLOCKS.
 TOTAL NUMBER OF NONZERO TWO-ELECTRON INTEGRALS =             1471947
         99 INTEGRAL RECORDS WERE STORED ON DISK FILE  8.
  ...... END OF TWO-ELECTRON INTEGRALS .....
 STEP CPU TIME =     0.29 TOTAL CPU TIME =          0.4 (      0.0 MIN)
 TOTAL WALL CLOCK TIME=          0.5 SECONDS, CPU UTILIZATION IS    89.80%

          --------------------------
                 RHF SCF CALCULATION
          --------------------------

     NUCLEAR ENERGY =       505.2612007741
     MAXIT =   30     NPUNCH=    2
     EXTRAP=T  DAMP=F  SHIFT=F  RSTRCT=F  DIIS=F  DEM=F  SOSCF=T
     DENSITY MATRIX CONV=  1.00E-05
     SOSCF WILL OPTIMIZE     864 ORBITAL ROTATIONS, SOGTOL=   0.250
     MEMORY REQUIRED FOR RHF ITERS=     59496 WORDS.

 ITER EX DEM     TOTAL ENERGY        E CHANGE  DENSITY CHANGE     ORB. GRAD
   1  0  0     -415.4887728195  -415.4887728195   0.520959846   0.000000000
          ---------------START SECOND ORDER SCF---------------
   2  1  0     -416.0015447706    -0.5127719511   0.279096339   0.061886676
   3  2  0     -416.0338837834    -0.0323390128   0.127269749   0.049718005
   4  3  0     -416.0686651881    -0.0347814047   0.025701065   0.006734078
   5  4  0     -416.0696288824    -0.0009636943   0.007554116   0.003386593
   6  5  0     -416.0697752325    -0.0001463501   0.002529169   0.000845580
   7  6  0     -416.0697960892    -0.0000208567   0.000873856   0.000268018
   8  7  0     -416.0697982779    -0.0000021887   0.000351699   0.000104129
   9  8  0     -416.0697987252    -0.0000004472   0.000156408   0.000036650
  10  9  0     -416.0697987829    -0.0000000577   0.000081957   0.000016362
  11 10  0     -416.0697987914    -0.0000000084   0.000022264   0.000003450
  12 11  0     -416.0697987923    -0.0000000010   0.000007664   0.000002086
  13 12  0     -416.0697987925    -0.0000000002   0.000005342   0.000000791

          -----------------
          DENSITY CONVERGED
          -----------------
     TIME TO FORM FOCK OPERATORS=       0.3 SECONDS (       0.0 SEC/ITER)
     TIME TO SOLVE SCF EQUATIONS=       0.1 SECONDS (       0.0 SEC/ITER)

 FINAL RHF ENERGY IS     -416.0697987925 AFTER  13 ITERATIONS

          ------------
          EIGENVECTORS
          ------------

                      1          2          3          4          5
                  -20.2542   -11.1107   -11.0519   -11.0503   -11.0498
                     A          A          A          A          A   
    1  C  1  S   -0.000000   0.000033  -0.020238  -0.001103  -0.002180
    2  C  1  S    0.000002   0.000017  -0.003470   0.000104  -0.000025
    3  C  1  X    0.000000   0.000013  -0.002240   0.000040  -0.000044
    4  C  1  Y   -0.000001   0.000012  -0.000564   0.000044  -0.000049
    5  C  1  Z    0.000001  -0.000019  -0.001091  -0.000000  -0.000081
    6  C  2  S   -0.000000   0.000014  -0.000409  -0.000791  -0.001113
    7  C  2  S    0.000002   0.000001   0.000317  -0.004521  -0.003670
    8  C  2  X   -0.000003   0.000032   0.000226   0.000321   0.000318
    9  C  2  Y   -0.000002   0.000010  -0.000004  -0.002923  -0.002391
   10  C  2  Z    0.000006  -0.000033  -0.000083  -0.001440  -0.001162
   11  C  3  S   -0.000006  -0.000326   0.000836   0.757510   0.641033
   12  C  3  S    0.000018   0.000123   0.000080   0.028163   0.020454
   13  C  3  X    0.000026  -0.000195  -0.000004   0.000123  -0.002800
   14  C  3  Y    0.000032  -0.000082   0.000021  -0.000020  -0.000627
   15  C  3  Z   -0.000013   0.000032   0.000037   0.000177  -0.001070
   16  C  4  S   -0.000023  -0.001814  -0.020153  -0.640156   0.757788
   17  C  4  S    0.000266  -0.005571  -0.000667  -0.024379   0.024904
   18  C  4  X   -0.000133  -0.001279  -0.000028   0.000489   0.002823
   19  C  4  Y    0.000383  -0.003284   0.000026   0.000087   0.000617
   20  C  4  Z    0.000206   0.002062   0.000236   0.000402   0.000972
   21  C  5  S    0.000005  -0.000319   0.008761   0.000628  -0.001787
   22  C  5  S    0.000012   0.000071  -0.007194   0.003985  -0.004604
   23  C  5  X   -0.000048  -0.000061  -0.001186  -0.001368   0.001569
   24  C  5  Y   -0.000041  -0.000051   0.001023   0.002366  -0.002703
   25  C  5  Z    0.000052   0.000035   0.004458   0.000470  -0.000540
   26  C  6  S    0.000003  -0.000315   0.991235  -0.013530   0.014593
   27  C  6  S    0.000016  -0.000054   0.036975  -0.000615   0.000712
   28  C  6  X    0.000022   0.000023   0.001001  -0.000048   0.000103
   29  C  6  Y   -0.000030  -0.000124   0.000904  -0.000026  -0.000009
   30  C  6  Z   -0.000008  -0.000013   0.001527  -0.000002   0.000025
   31  C  7  S    0.000007  -0.000413  -0.025664   0.007993  -0.010896
   32  C  7  S    0.000017   0.000120  -0.007255   0.000433  -0.000534
   33  C  7  X    0.000045  -0.000004   0.001461  -0.000100   0.000106
   34  C  7  Y    0.000034  -0.000015   0.003390  -0.000008  -0.000002
   35  C  7  Z   -0.000066   0.000006  -0.002458   0.000111  -0.000124
   36  C  8  S   -0.000026  -0.000825  -0.001027   0.000756  -0.000759
   37  C  8  S    0.000374  -0.006036   0.000370  -0.000124   0.000191
   38  C  8  X   -0.000080   0.002385  -0.000004  -0.000034   0.000004
   39  C  8  Y    0.000478  -0.000969  -0.000189   0.000068  -0.000077
   40  C  8  Z    0.000057  -0.003376   0.000081  -0.000003   0.000006
   41  C  9  S    0.000557   0.992507   0.000284  -0.001531   0.002370
   42  C  9  S   -0.007142   0.033190   0.000079   0.003856  -0.004451
   43  C  9  X    0.001541  -0.000051  -0.000066  -0.000870   0.001000
   44  C  9  Y   -0.005968   0.000449   0.000061  -0.002154   0.002463
   45  C  9  Z   -0.001361  -0.000318   0.000143   0.001596  -0.001818
   46  O 10  S    0.994274   0.000182   0.000006   0.000007  -0.000021
   47  O 10  S    0.025899  -0.005835  -0.000058  -0.000133   0.000221
   48  O 10  X    0.001359  -0.000437  -0.000010   0.000011  -0.000035
   49  O 10  Y   -0.005221   0.001704   0.000037   0.000096  -0.000161
   50  O 10  Z   -0.001221   0.000423  -0.000004  -0.000077   0.000083
   51  H 11  S   -0.000001  -0.000003   0.000335  -0.000041  -0.000050
   52  H 12  S    0.000001  -0.000048   0.000125  -0.000090  -0.000071
   53  H 13  S   -0.000002   0.000006  -0.000001   0.000079   0.000062
   54  H 14  S    0.000020  -0.000486  -0.000007  -0.005272  -0.004347
   55  H 15  S    0.000001  -0.000054  -0.000021  -0.005282  -0.004350
   56  H 16  S   -0.000145  -0.000046   0.000011   0.004527  -0.005193
   57  H 17  S   -0.000023  -0.000066   0.000076  -0.000054   0.000064
   58  H 18  S   -0.000016  -0.000037  -0.006822   0.000144  -0.000179
   59  H 19  S   -0.000024  -0.000061   0.000268  -0.000024   0.000038
   60  H 20  S   -0.000215   0.000022  -0.000031   0.000033  -0.000041

                      6          7          8          9         10
                  -11.0482   -11.0375   -11.0258   -11.0197   -11.0054
                     A          A          A          A          A   
    1  C  1  S   -0.000111   0.991894  -0.000524   0.002127  -0.008268
    2  C  1  S    0.000348   0.036410   0.000056   0.000197  -0.007919
    3  C  1  X   -0.000118  -0.001785   0.000015  -0.000048   0.003259
    4  C  1  Y    0.000103   0.000304   0.000038  -0.000028  -0.000642
    5  C  1  Z   -0.000204   0.000302  -0.000054  -0.000173  -0.003347
    6  C  2  S    0.000030   0.008940   0.000044  -0.008000   0.992133
    7  C  2  S   -0.000016  -0.007292   0.000015  -0.000762   0.035993
    8  C  2  X    0.000005  -0.003212   0.000008  -0.000577   0.002181
    9  C  2  Y    0.000027   0.000725  -0.000006  -0.000051  -0.000315
   10  C  2  Z    0.000012   0.003274   0.000002  -0.000345  -0.000074
   11  C  3  S    0.000953   0.002342  -0.000116   0.000686   0.002245
   12  C  3  S    0.000004   0.000169   0.000022   0.000167  -0.005724
   13  C  3  X   -0.000024  -0.000123  -0.000000  -0.000088  -0.000469
   14  C  3  Y   -0.000003  -0.000038   0.000018   0.000050   0.003825
   15  C  3  Z   -0.000022   0.000090  -0.000006  -0.000046   0.001819
   16  C  4  S    0.013014   0.000548   0.000845   0.002908   0.000368
   17  C  4  S    0.000448   0.000039   0.000234  -0.005750   0.000082
   18  C  4  X   -0.000037   0.000035   0.000050  -0.002094   0.000001
   19  C  4  Y    0.000014  -0.000003   0.000010   0.003596   0.000075
   20  C  4  Z    0.000143   0.000065  -0.000005   0.000823   0.000042
   21  C  5  S   -0.001440  -0.001813  -0.005261   0.992123   0.008246
   22  C  5  S   -0.000212  -0.000114  -0.000316   0.035933  -0.000206
   23  C  5  X   -0.000086   0.000070  -0.000046  -0.001325   0.000592
   24  C  5  Y   -0.000182   0.000012  -0.000165  -0.000667   0.000152
   25  C  5  Z    0.000119   0.000006   0.000125  -0.002051   0.000233
   26  C  6  S    0.026916   0.021160   0.000659  -0.007978   0.000169
   27  C  6  S   -0.005036  -0.001914   0.000416  -0.007888   0.000149
   28  C  6  X   -0.001467   0.002343   0.000092   0.001044  -0.000005
   29  C  6  Y   -0.003358   0.000579   0.000087  -0.000775  -0.000025
   30  C  6  Z    0.002111   0.000921  -0.000052  -0.004507  -0.000062
   31  C  7  S    0.991672  -0.000479  -0.015906   0.001664  -0.000032
   32  C  7  S    0.035726   0.000090  -0.008433   0.000125  -0.000011
   33  C  7  X   -0.000318  -0.000190   0.000872  -0.000005  -0.000026
   34  C  7  Y    0.001137  -0.000033  -0.004399  -0.000148   0.000023
   35  C  7  Z    0.000401  -0.000123  -0.001185  -0.000231  -0.000007
   36  C  8  S    0.016479   0.000474   0.992026   0.005351  -0.000007
   37  C  8  S   -0.007115   0.000056   0.036418   0.000147  -0.000012
   38  C  8  X   -0.000839  -0.000019   0.000019   0.000005  -0.000001
   39  C  8  Y    0.004280  -0.000020  -0.001590   0.000103   0.000003
   40  C  8  Z    0.001108  -0.000010   0.000017  -0.000155  -0.000002
   41  C  9  S    0.000544  -0.000030   0.001807   0.000401  -0.000014
   42  C  9  S    0.000030   0.000008  -0.006250   0.000066  -0.000007
   43  C  9  X   -0.000002  -0.000013  -0.002405  -0.000114  -0.000011
   44  C  9  Y    0.000255  -0.000009   0.000775   0.000083  -0.000011
   45  C  9  Z   -0.000016  -0.000002   0.003460   0.000005  -0.000035
   46  O 10  S    0.000014   0.000000  -0.000019   0.000009   0.000000
   47  O 10  S   -0.000127  -0.000001   0.000307  -0.000078   0.000003
   48  O 10  X   -0.000031  -0.000001   0.000101   0.000018   0.000005
   49  O 10  Y    0.000055   0.000002  -0.000123   0.000045  -0.000001
   50  O 10  Z    0.000032  -0.000001  -0.000125   0.000001   0.000001
   51  H 11  S   -0.000023  -0.006806  -0.000003  -0.000046   0.000151
   52  H 12  S   -0.001056  -0.006802  -0.000155  -0.000035   0.000027
   53  H 13  S    0.000005   0.000053  -0.000002   0.000086  -0.006909
   54  H 14  S   -0.000002   0.000004  -0.000037  -0.000064  -0.000086
   55  H 15  S   -0.000006  -0.000118  -0.000005  -0.000021   0.000040
   56  H 16  S   -0.000144  -0.000026  -0.000066   0.000019  -0.000039
   57  H 17  S   -0.000083   0.000012  -0.000017  -0.006870  -0.000084
   58  H 18  S   -0.000120  -0.000031  -0.000083   0.000164  -0.000027
   59  H 19  S   -0.006827   0.000020   0.000215  -0.000118   0.000001
   60  H 20  S    0.000021  -0.000003  -0.006839  -0.000094   0.000001

                     11         12         13         14         15
                   -1.3066    -1.0873    -1.0083    -0.9579    -0.9337
                     A          A          A          A          A   
    1  C  1  S   -0.000711  -0.055753  -0.125712   0.070364  -0.055536
    2  C  1  S    0.001716   0.146565   0.336859  -0.192137   0.157811
    3  C  1  X    0.000117  -0.000144  -0.068700   0.042442   0.028279
    4  C  1  Y    0.000419   0.014188   0.016367  -0.007635  -0.005910
    5  C  1  Z    0.000351   0.023962   0.058735  -0.015094  -0.004504
    6  C  2  S   -0.000826  -0.048059  -0.148148   0.067859   0.015808
    7  C  2  S    0.001839   0.120448   0.386764  -0.180692  -0.045144
    8  C  2  X    0.000458   0.028041   0.057146  -0.026170   0.033443
    9  C  2  Y    0.000628   0.009137   0.020568   0.007401  -0.050195
   10  C  2  Z    0.000175  -0.009899  -0.029511   0.032308  -0.047596
   11  C  3  S   -0.002608  -0.035920  -0.096363   0.013393   0.089704
   12  C  3  S    0.006655   0.098815   0.268909  -0.034810  -0.262063
   13  C  3  X    0.002060   0.013815  -0.001827   0.021830  -0.005359
   14  C  3  Y    0.001206  -0.013955  -0.054899   0.030268  -0.005256
   15  C  3  Z    0.000310  -0.006527  -0.032046   0.027967  -0.006232
   16  C  4  S   -0.021910  -0.073522  -0.011783  -0.107643   0.114474
   17  C  4  S    0.055449   0.197689   0.035856   0.305867  -0.332324
   18  C  4  X    0.009949   0.031032  -0.026841   0.044477  -0.004690
   19  C  4  Y    0.023251  -0.025206  -0.014138  -0.041749  -0.049300
   20  C  4  Z   -0.014199  -0.027409   0.002897   0.004660   0.016077
   21  C  5  S   -0.005127  -0.107646  -0.001759  -0.130078  -0.032669
   22  C  5  S    0.011824   0.272800   0.005371   0.353479   0.085363
   23  C  5  X   -0.001692  -0.006267  -0.020112  -0.024406   0.050687
   24  C  5  Y    0.004621   0.017313  -0.005215   0.024046  -0.086269
   25  C  5  Z   -0.001382  -0.069534   0.009556  -0.019958  -0.092707
   26  C  6  S   -0.003585  -0.127292   0.017977  -0.046169  -0.124769
   27  C  6  S    0.008514   0.332170  -0.047330   0.122937   0.350473
   28  C  6  X   -0.000137  -0.004255  -0.039750  -0.022234   0.010775
   29  C  6  Y    0.003093   0.053871  -0.041305  -0.019072  -0.013435
   30  C  6  Z    0.001094   0.034248   0.012284   0.118729   0.012707
   31  C  7  S   -0.006723  -0.110876   0.085872   0.098816  -0.023933
   32  C  7  S    0.016031   0.283617  -0.227893  -0.268931   0.068568
   33  C  7  X   -0.002599  -0.033839   0.008948   0.003029  -0.006627
   34  C  7  Y    0.006102   0.004611  -0.049838  -0.095316  -0.116806
   35  C  7  Z    0.003440   0.046514  -0.021006   0.009903   0.009283
   36  C  8  S   -0.024638  -0.082872   0.088299   0.116414   0.073472
   37  C  8  S    0.058749   0.210146  -0.231509  -0.312415  -0.200323
   38  C  8  X   -0.017407  -0.003443  -0.004405  -0.015306   0.027115
   39  C  8  Y    0.005720  -0.064897   0.052163   0.055778  -0.008862
   40  C  8  Z    0.024314   0.006338   0.001332   0.027878  -0.038270
   41  C  9  S   -0.128097  -0.035502   0.022929  -0.000759   0.078856
   42  C  9  S    0.297794   0.096965  -0.064584   0.001578  -0.229678
   43  C  9  X   -0.036813   0.022406  -0.038479  -0.054596  -0.015616
   44  C  9  Y    0.142925  -0.084038   0.027934  -0.038717   0.137020
   45  C  9  Z    0.031789  -0.024968   0.044440   0.090630   0.014884
   46  O 10  S   -0.213765   0.038764  -0.017262  -0.001066  -0.056670
[...]
 19   H            X -0.00395758 -0.00020781  0.00009234 -0.06957527 -0.01616699
                   Y -0.06201152  0.00256555  0.02226394 -0.11745916 -0.02176054
                   Z  0.02458891 -0.00055468  0.00162312  0.12247927  0.02694762
 20   H            X  0.00247200 -0.00033182 -0.00171844 -0.05770172 -0.04740709
                   Y  0.01502645 -0.00009768 -0.00434238 -0.03471071  0.03573183
                   Z -0.01044209 -0.00062676  0.01986241  0.12174714  0.08033803

 TRANS. SAYVETZ    X -0.00000115  0.00000022 -0.00000080 -0.00000061 -0.00000250
                   Y -0.00000028  0.00000084 -0.00000194 -0.00000121  0.00000041
                   Z  0.00000193  0.00000101  0.00000074 -0.00000018  0.00000081
               TOTAL  0.00000226  0.00000133  0.00000222  0.00000137  0.00000266

   ROT. SAYVETZ    X -0.00054774 -0.00263809 -0.00233653  0.00050655  0.00066595
                   Y  0.00550121  0.00277350 -0.01023425  0.00113495  0.00038265
                   Z -0.00138440  0.00359713  0.00921137 -0.00156996 -0.00148169
               TOTAL  0.00569911  0.00525273  0.01396598  0.00200237  0.00166893

                           51          52          53          54          55
       FREQUENCY:      3634.34     3638.69     3689.49     3697.30     3699.03  
        SYMMETRY:         A           A           A           A           A   
    REDUCED MASS:      1.06235     1.06453     1.09084     1.09394     1.09618
    IR INTENSITY:      0.02500     0.10675     0.12787     0.07693     0.09940

  1   C            X  0.01424193  0.00906233 -0.00230956  0.00029896  0.00468532
                   Y -0.01792510 -0.01197875  0.00076127  0.00060524  0.00121757
                   Z -0.05134220 -0.03558689  0.00588577 -0.00211267 -0.01056997
  2   C            X  0.00067573 -0.00339458  0.00539406 -0.00455695 -0.02753074
                   Y  0.00814067  0.00351541  0.01161051 -0.01052502 -0.06028192
                   Z -0.00588144  0.00578618 -0.00885878  0.00754147  0.04577830
  3   C            X -0.01763364  0.02795266  0.00182947 -0.00059825 -0.00140412
                   Y  0.03213898 -0.04968578 -0.00603249  0.00312525  0.01121384
                   Z  0.00492111 -0.00646895  0.00038236  0.00079502 -0.00168244
  4   C            X  0.00087152 -0.00110342  0.01685747  0.01593753  0.00253562
                   Y -0.00042667  0.00075501 -0.01119417 -0.01260492 -0.00179692
                   Z -0.00338139  0.00034377 -0.05354586 -0.04848626 -0.00614157
  5   C            X -0.00020470  0.00029328 -0.00270107 -0.00186448  0.00013907
                   Y -0.00287534  0.00023343 -0.03128200  0.00910854 -0.00224633
                   Z  0.00251636 -0.00092875  0.03026571 -0.00240721  0.00151185
  6   C            X -0.00154555  0.00080470 -0.01726433  0.02799659 -0.00880249
                   Y  0.00294737 -0.00047691  0.03137134 -0.04784987  0.01547394
                   Z  0.00064456  0.00092276  0.00537487 -0.01129657  0.00440640
  7   C            X  0.00069866  0.00006071  0.00448486 -0.01277882  0.00593722
                   Y -0.00013359  0.00011855 -0.00321774  0.00773660 -0.00331264
                   Z -0.00031653  0.00009247 -0.00766258  0.02170317 -0.01012748
  8   C            X -0.00011576  0.00003150 -0.00164542  0.00487183 -0.00216201
                   Y -0.00044960  0.00019543 -0.00305947  0.00998332 -0.00440852
                   Z  0.00035799 -0.00003475  0.00280439 -0.00880491  0.00394955
  9   C            X  0.00023549 -0.00019391 -0.00053195 -0.00087850  0.00003707
                   Y -0.00014410 -0.00008761 -0.00085099 -0.00123737 -0.00003410
                   Z  0.00029970 -0.00010780  0.00084180  0.00156360 -0.00012069
 10   O            X -0.00000869 -0.00001830  0.00002161  0.00006215  0.00000579
                   Y  0.00002064  0.00001717  0.00004837  0.00023366  0.00000673
                   Z -0.00001737 -0.00001414 -0.00005985 -0.00014383  0.00002050
 11   H            X -0.05896953 -0.03994431  0.00651235 -0.00154731 -0.00601813
                   Y  0.54969836  0.37033516 -0.04354004  0.00910247  0.03829701
                   Z  0.15236007  0.10215844 -0.01171132  0.00270312  0.01082397
 12   H            X -0.07368770 -0.04928529  0.00968209 -0.00285907 -0.01120469
                   Y -0.35602095 -0.24211041  0.03851190 -0.01548814 -0.06353401
                   Z  0.41132366  0.28133551 -0.04274719  0.01741971  0.07050935
 13   H            X -0.05015312  0.00836915 -0.05432457  0.04871707  0.28670044
                   Y -0.11765641  0.02424656 -0.12836251  0.11441396  0.67328396
                   Z  0.09246542 -0.01588686  0.10019998 -0.08913197 -0.52451159
 14   H            X -0.03209015  0.04729464  0.00746803 -0.00240087 -0.00850790
                   Y -0.28461304  0.43801085  0.04779397 -0.01721295 -0.07199094
                   Z  0.23729157 -0.36487222 -0.03879833  0.01448141  0.06325176
 15   H            X  0.23702706 -0.35929356 -0.02510591  0.00985088  0.02040769
                   Y -0.06151335  0.09294539  0.00742836 -0.00301343 -0.00687766
                   Z -0.27859106  0.42310211  0.03203209 -0.01315005 -0.02626272
 16   H            X -0.00994781  0.00127849 -0.18357322 -0.16689066 -0.02196454
                   Y  0.00901268 -0.00122738  0.13870386  0.12656562  0.01608285
                   Z  0.03982855 -0.00525478  0.60905252  0.54947292  0.06986810
 17   H            X  0.00242074 -0.00053423  0.02146185 -0.00336503  0.00154683
                   Y  0.03341569 -0.00693441  0.37119101 -0.06814727  0.02616077
                   Z -0.03099223  0.00653286 -0.34691650  0.06162344 -0.02421822
 18   H            X  0.02127080 -0.00675352  0.20688143 -0.31811911  0.10084576
                   Y -0.03323362  0.01021192 -0.35314572  0.54307518 -0.17345968
                   Z -0.00609002  0.00166059 -0.07205823  0.11280367 -0.03675346
 19   H            X -0.00447801  0.00067043 -0.05259104  0.14735884 -0.06766833
                   Y  0.00179217 -0.00051045  0.02417676 -0.06694271  0.03074996
                   Z  0.00818457 -0.00104617  0.09136970 -0.25399885  0.11681069
 20   H            X  0.00180320 -0.00054795  0.01426613 -0.05021688  0.02207678
                   Y  0.00550125 -0.00165307  0.03809018 -0.13004330  0.05716629
                   Z -0.00418633  0.00092636 -0.02760880  0.09424461 -0.04137406

 TRANS. SAYVETZ    X  0.00000032  0.00000019 -0.00000088  0.00000054  0.00000023
                   Y -0.00000021  0.00000099 -0.00000130  0.00000037  0.00000021
                   Z -0.00000176  0.00000032  0.00000023  0.00000004  0.00000073
               TOTAL  0.00000180  0.00000106  0.00000159  0.00000066  0.00000079

   ROT. SAYVETZ    X  0.00022901 -0.00026725 -0.00024456  0.00020779  0.00003373
                   Y -0.00042323 -0.00071240  0.00067553  0.00092777 -0.00014384
                   Z -0.00018098  0.00083595  0.00026718 -0.00080519  0.00001220
               TOTAL  0.00051412  0.00113038  0.00076651  0.00124590  0.00014825

                           56          57          58          59          60
       FREQUENCY:      3704.98     3715.88     3736.10     3785.88     3787.64  
        SYMMETRY:         A           A           A           A           A   
    REDUCED MASS:      1.09180     1.10090     1.10598     1.11706     1.11747
    IR INTENSITY:      0.49439     0.07553     0.06448     0.00052     0.01712

  1   C            X -0.00067629 -0.00023484  0.00002061 -0.00108562  0.00050700
                   Y  0.00060595  0.00139330 -0.00032036 -0.07596056  0.04843662
                   Z  0.00066447 -0.00083327  0.00015070  0.02377369 -0.01456610
  2   C            X  0.00280943 -0.00250028  0.00003892 -0.00076716  0.00188515
                   Y  0.00566604 -0.00505788  0.00008240 -0.00006669  0.00411983
                   Z -0.00447226  0.00369206 -0.00003573  0.00112070 -0.00266488
  3   C            X  0.00012832  0.00018151  0.00000527  0.02172317  0.03461119
                   Y -0.00057170  0.00073571 -0.00024168  0.01760585  0.02703538
                   Z  0.00055778 -0.00130626  0.00019447 -0.04213318 -0.06640247
  4   C            X  0.00494282 -0.01046412  0.00109468  0.00007184 -0.00008832
                   Y -0.00444054  0.00991991 -0.00080289 -0.00018593 -0.00034466
                   Z -0.01427877  0.02617615 -0.00266591 -0.00001882 -0.00047391
  5   C            X -0.00049561 -0.00078463  0.00009071 -0.00008098 -0.00001638
                   Y  0.01473863 -0.05010015  0.00420702 -0.00006754  0.00048628
                   Z -0.01141093  0.04903449 -0.00412466  0.00024924 -0.00051594
  6   C            X  0.01175769  0.01964357 -0.00233673  0.00028668 -0.00056852
                   Y -0.02339055 -0.03396140  0.00638950 -0.00007960  0.00041955
                   Z -0.00283237 -0.01156663  0.00039621 -0.00024974  0.00019897
  7   C            X  0.03130083  0.00199536 -0.02381747  0.00003030 -0.00008694
                   Y -0.01319734  0.00127804  0.01809844 -0.00016762  0.00026105
                   Z -0.05377487 -0.00361948  0.03991627 -0.00045203  0.00044676
  8   C            X -0.01326651 -0.00333436 -0.01892542 -0.00006020  0.00014011
                   Y -0.02881580 -0.00941707 -0.06165514 -0.00007024 -0.00009404
                   Z  0.02433478  0.00631279  0.03647195 -0.00000526 -0.00000773
  9   C            X  0.00064645  0.00041903  0.00117381  0.00005180  0.00013832
                   Y  0.00011386  0.00091442 -0.00058339  0.00004351 -0.00000707
                   Z -0.00115790 -0.00073886 -0.00199885  0.00009498  0.00010331
 10   O            X -0.00007145 -0.00001115 -0.00014240  0.00001759  0.00002434
                   Y -0.00010001 -0.00017911  0.00021897 -0.00000581 -0.00000497
                   Z  0.00012150  0.00003569  0.00023466 -0.00000083  0.00001240
 11   H            X  0.00105314  0.00092230 -0.00006593 -0.05617915  0.03559890
                   Y -0.00709020 -0.00613929  0.00175398  0.52776642 -0.33654211
                   Z -0.00192084 -0.00161319  0.00042236  0.14991809 -0.09515255
 12   H            X -0.00001080 -0.00140068  0.00003880  0.07382439 -0.04691101
                   Y  0.00253887 -0.00889573  0.00240051  0.36738242 -0.23124421
                   Z -0.00314125  0.00954411 -0.00268251 -0.43157771  0.27167193
 13   H            X -0.02773963  0.02405581 -0.00017372  0.00609967 -0.02160262
                   Y -0.06500003  0.05651968 -0.00068042  0.00662638 -0.04874350
                   Z  0.05048077 -0.04405291  0.00047376 -0.00979895  0.03596054
 14   H            X  0.00079275 -0.00118596  0.00059026 -0.02698089 -0.04264088
                   Y  0.00529686 -0.00924086  0.00257716 -0.27162572 -0.42416543
                   Z -0.00495185  0.00845237 -0.00210765  0.22616492  0.35247886
 15   H            X -0.00036375 -0.00332738 -0.00006244 -0.23083548 -0.36431361
                   Y -0.00003860  0.00107285 -0.00003712  0.06173464  0.09674102
                   Z  0.00018961  0.00434645  0.00009886  0.26916139  0.42478832
 16   H            X -0.04888053  0.08997854 -0.00798765 -0.00081181 -0.00213751
                   Y  0.03671245 -0.06840139  0.00619512  0.00094596  0.00220493
                   Z  0.16071665 -0.29242733  0.02628158  0.00346495  0.00892030
 17   H            X -0.00734378  0.02915847 -0.00191344  0.00015170 -0.00036138
                   Y -0.15462628  0.55805173 -0.04438549  0.00148249 -0.00556739
                   Z  0.14363086 -0.52339565  0.04150712 -0.00154556  0.00510897
 18   H            X -0.14511565 -0.21570650  0.03288159 -0.00396427  0.00491216
                   Y  0.25054653  0.37013142 -0.05821730  0.00571554 -0.00774990
                   Z  0.05000182  0.07850426 -0.01134276  0.00105751 -0.00145258
 19   H            X -0.35454554 -0.02143053  0.25058335 -0.00219263  0.00239773
                   Y  0.15631672  0.00803246 -0.11276842  0.00112286 -0.00113578
                   Z  0.60794579  0.03634209 -0.42921909  0.00341314 -0.00366624
 20   H            X  0.14098341  0.04051656  0.23626197  0.00045057 -0.00018453
                   Y  0.36383603  0.10539933  0.61435565  0.00083493  0.00000887
                   Z -0.26225030 -0.07582248 -0.44044484 -0.00044118 -0.00008569

 TRANS. SAYVETZ    X  0.00000022  0.00000006 -0.00000040  0.00000005  0.00000005
                   Y  0.00000004 -0.00000008  0.00000051  0.00000006  0.00000004
                   Z -0.00000013 -0.00000045  0.00000050  0.00000010 -0.00000003
               TOTAL  0.00000026  0.00000046  0.00000082  0.00000013  0.00000007

   ROT. SAYVETZ    X  0.00010026  0.00014860 -0.00003447 -0.00022378  0.00056820
                   Y  0.00030276 -0.00018415  0.00003064 -0.00036335 -0.00111684
                   Z -0.00033817 -0.00028076  0.00006568  0.00059562 -0.00071365
               TOTAL  0.00046484  0.00036718  0.00008025  0.00073271  0.00144204

 REFERENCE ON SAYVETZ CONDITIONS - A. SAYVETZ, J.CHEM.PHYS., 7, 383-389(1939).

 NOTE - THE MODES J,K ARE ORTHONORMALIZED ACCORDING TO
 SUM ON I   M(I) * (X(I,J)*X(I,K) + Y(I,J)*Y(I,K) + Z(I,J)*Z(I,K)) = DELTA(J,K)

  MODE FREQ(CM**-1)  SYMMETRY  RED. MASS  IR INTENS.
     1    1105.047    A        9.337604    0.024485
     2       0.060    A        6.616659    0.000017
     3       0.018    A        6.703467    0.000000
     4       0.002    A        6.702741    0.000000
     5       1.711    A        4.855212    0.014712
     6      29.453    A        5.892123    0.016228
     7      35.836    A        4.148338    0.001103
     8     110.739    A        4.133758    0.028016
     9     202.452    A        3.551799    0.015157
    10     257.729    A        4.164117    0.029895
    11     373.621    A        5.303586    0.031145
    12     410.173    A        5.703754    0.169143
    13     456.156    A        1.990721    0.060378
    14     487.197    A        3.523059    0.073645
    15     497.134    A        4.519765    0.137126
    16     536.888    A        1.988648    0.234208
    17     570.923    A        2.521758    0.186606
    18     603.778    A        5.426060    0.018128
    19     674.651    A        5.938239    0.036230
    20     837.153    A        3.394259    0.044717
    21     852.866    A        4.081171    0.044621
    22     924.931    A        1.631575    1.209327
    23     935.620    A        1.774984    0.148970
    24     971.343    A        1.615392    0.876845
    25     995.134    A        1.365038    0.224808
    26    1023.985    A        1.418868    0.043178
    27    1085.007    A        1.839853    0.188646
    28    1122.436    A        2.888429    0.002567
    29    1171.606    A        1.971524    0.073721
    30    1201.760    A        1.125516    0.032714
    31    1209.691    A        1.271835    0.004293
    32    1228.754    A        1.503287    0.137671
    33    1260.351    A        1.270373    0.221186
    34    1278.542    A        1.151219    0.415676
    35    1305.196    A        1.232830    0.016345
    36    1328.609    A        1.260951    0.107473
    37    1355.722    A        1.266729    0.030007
    38    1358.666    A        1.122874    0.019584
    39    1419.237    A        1.832449    0.645119
    40    1471.310    A        1.330422    0.100995
    41    1484.845    A        1.781899    0.004819
    42    1600.516    A        1.604189    0.151370
    43    1639.639    A        1.714772    0.150504
    44    1668.166    A        1.505938    0.060437
    45    1727.125    A        2.567375    0.327409
    46    1758.631    A        1.892417    0.050050
    47    1811.299    A        1.277751    0.196541
    48    1863.195    A        2.593639    0.054751
    49    2004.911    A        7.008620    0.061445
    50    2075.446    A       10.553000    1.845761
    51    3634.337    A        1.062350    0.025000
    52    3638.695    A        1.064531    0.106749
    53    3689.491    A        1.090840    0.127873
    54    3697.305    A        1.093936    0.076929
    55    3699.033    A        1.096181    0.099405
    56    3704.980    A        1.091798    0.494392
    57    3715.878    A        1.100903    0.075527
    58    3736.102    A        1.105983    0.064476
    59    3785.884    A        1.117056    0.000519
    60    3787.642    A        1.117467    0.017118

     -------------------------------
     THERMOCHEMISTRY AT T=  298.15 K
     -------------------------------

 USING IDEAL GAS, RIGID ROTOR, HARMONIC NORMAL MODE APPROXIMATIONS.
 P=  1.01325E+05 PASCAL.
 ALL FREQUENCIES ARE SCALED BY   1.00000
 THE MOMENTS OF INERTIA ARE (IN AMU*BOHR**2)
            865.16009          1321.65150          1660.67552
 THE ROTATIONAL SYMMETRY NUMBER IS  1.0
 THE ROTATIONAL CONSTANTS ARE (IN GHZ)
      2.08411     1.36427     1.08576
   1 IMAGINARY FREQUENCY VIBRATION(S) IS(ARE) EXCLUDED
     FROM THE FOLLOWING THERMOCHEMICAL ANALYSIS.
      8 -     60 VIBRATIONAL MODES ARE USED IN THERMOCHEMISTRY.
 THE HARMONIC ZERO POINT ENERGY IS (SCALED BY   1.000)
        0.191919 HARTREE/MOLECULE    42121.238159 CM**-1/MOLECULE 
      120.430784 KCAL/MOL              503.882400 KJ/MOL

               Q               LN Q
 ELEC.     1.00000E+00       0.000000
 TRANS.    6.10192E+07      17.926699
 ROT.      4.93277E+05      13.108825
 VIB.      1.47794E+01       2.693233
 TOT.      4.44850E+14      33.728758

              E         H         G         CV        CP        S
           KJ/MOL    KJ/MOL    KJ/MOL   J/MOL-K   J/MOL-K   J/MOL-K
 ELEC.      0.000     0.000     0.000     0.000     0.000     0.000
 TRANS.     3.718     6.197   -44.439    12.472    20.786   169.836
 ROT.       3.718     3.718   -32.496    12.472    12.472   121.464
 VIB.     515.201   515.201   497.206    94.217    94.217    60.355
 TOTAL    522.638   525.117   420.271   119.160   127.475   351.655
 VIB. THERMAL CORRECTION E(T)-E(0) = H(T)-H(0) =     11318.550 J/MOL

              E         H         G         CV        CP        S
         KCAL/MOL  KCAL/MOL  KCAL/MOL CAL/MOL-K CAL/MOL-K CAL/MOL-K
 ELEC.      0.000     0.000     0.000     0.000     0.000     0.000
 TRANS.     0.889     1.481   -10.621     2.981     4.968    40.592
 ROT.       0.889     0.889    -7.767     2.981     2.981    29.031
 VIB.     123.136   123.136   118.835    22.518    22.518    14.425
 TOTAL    124.913   125.506   100.447    28.480    30.467    84.048
 VIB. THERMAL CORRECTION E(T)-E(0) = H(T)-H(0) =      2705.198 CAL/MOL

     *******************************************************
     * THIS IS NOT A STATIONARY POINT ON THE MOLECULAR PES *
     *     THE VIBRATIONAL ANALYSIS IS NOT VALID !!!       *
     *******************************************************
 ......END OF NORMAL COORDINATE ANALYSIS......
 STEP CPU TIME =     0.01 TOTAL CPU TIME =        147.0 (      2.5 MIN)
 TOTAL WALL CLOCK TIME=        149.4 SECONDS, CPU UTILIZATION IS    98.37%
               580000  WORDS OF DYNAMIC MEMORY USED
 EXECUTION OF GAMESS TERMINATED NORMALLY Sat Nov 13 04:11:46 2021
 DDI: 263640 bytes (0.3 MB / 0 MWords) used by master data server.

 ----------------------------------------
 CPU timing information for all processes
 ========================================
 0: 144.549 + 2.466 = 147.15
 ----------------------------------------
 ddikick.x: exited gracefully.
----- accounting info -----
Files used on the master node chemcompute-node-0.novalocal were:
-rw-r--r--. 1 chemcomp chemcomp     1346 Nov 13 04:09 /scratch/305668/341544.F05
-rw-rw-r--. 1 chemcomp chemcomp 17821584 Nov 13 04:11 /scratch/305668/341544.F08
-rw-rw-r--. 1 chemcomp chemcomp 85196800 Nov 13 04:11 /scratch/305668/341544.F10
-rw-rw-r--. 1 chemcomp chemcomp   878880 Nov 13 04:11 /scratch/305668/341544.F18
Sat Nov 13 04:11:49 UTC 2021
0.117u 0.118s 2:32.99 0.1%	0+0k 8+216io 0pf+0w
Finishing Up...
Looking for IR data...
Looking for Raman data...
vibramans not found
Looking for thermodynamics data...
Looking for UV-Vis data...
305668
