----- GAMESS execution script 'rungms' -----
This job is running on host chemcompute-node-0.novalocal
under operating system Linux at Sat Nov 13 05:10:46 UTC 2021
SLURM has assigned the following compute nodes to this run:
chemcompute-node-0
Available scratch disk space (Kbyte units) at beginning of the job is
Filesystem     1K-blocks     Used Available Use% Mounted on
/dev/sda1       62903276 17335340  45567936  28% /
GAMESS temporary binary files will be written to /scratch/305758
GAMESS supplementary output files will be written to /data/slurm/341635
Copying input file 341635.inp to your run's scratch directory...
The generated host list is
chemcompute-node-0.novalocal

 Distributed Data Interface kickoff program.
 Initiating 1 compute processes on 1 nodes to run the following command:
 /data/gamess-2019R1-ddi/gamess.00.x 341635 

          ******************************************************
          *         GAMESS VERSION = 30 JUN 2019 (R1)          *
          *             FROM IOWA STATE UNIVERSITY             *
          * M.W.SCHMIDT, K.K.BALDRIDGE, J.A.BOATZ, S.T.ELBERT, *
          *   M.S.GORDON, J.H.JENSEN, S.KOSEKI, N.MATSUNAGA,   *
          *          K.A.NGUYEN, S.J.SU, T.L.WINDUS,           *
          *       TOGETHER WITH M.DUPUIS, J.A.MONTGOMERY       *
          *         J.COMPUT.CHEM.  14, 1347-1363(1993)        *
          **************** 64 BIT LINUX VERSION ****************

  SINCE 1993, STUDENTS AND POSTDOCS WORKING AT IOWA STATE UNIVERSITY
  AND ALSO IN THEIR VARIOUS JOBS AFTER LEAVING ISU HAVE MADE IMPORTANT
  CONTRIBUTIONS TO THE CODE:
     IVANA ADAMOVIC, CHRISTINE AIKENS, YURI ALEXEEV, POOJA ARORA,
     ANDREY ASADCHEV, ROB BELL, PRADIPTA BANDYOPADHYAY, JONATHAN BENTZ,
     COLLEEN BERTONI, BRETT BODE, KURT BRORSEN, CALEB CARLIN, GALINA CHABAN,
     WEI CHEN, CHEOL HO CHOI, PAUL DAY, ALBERT DEFUSCO, NUWAN DESILVA,
     TIM DUDLEY, DMITRI FEDOROV, ALEX FINDLATER, GRAHAM FLETCHER, 
     MARK FREITAG, KURT GLAESEMANN, ANASTASIA GUNINA,
     DAN KEMP, GRANT MERRILL, NORIYUKI MINEZAWA, JONATHAN MULLIN,
     TAKESHI NAGATA, SEAN NEDD, HEATHER NETZLOFF, BOSILJKA NJEGIC, RYAN OLSON,
     MIKE PAK, BUU PHAM,
     SPENCER PRUITT, LUKE ROSKOP, JIM SHOEMAKER, LYUDMILA SLIPCHENKO,
     TONY SMITH, SAROM SOK LEANG, JIE SONG, TETSUYA TAKETSUGU, SIMON WEBB,
     PENG XU, SOOHAENG YOO, FEDERICO ZAHARIEV

  ADDITIONAL CODE HAS BEEN PROVIDED BY COLLABORATORS IN OTHER GROUPS:
     IOWA STATE UNIVERSITY:
          JOE IVANIC, AARON WEST, LAIMUTIS BYTAUTAS, KLAUS RUEDENBERG
     UNIVERSITY OF TOKYO: KIMIHIKO HIRAO, TAKAHITO NAKAJIMA,
          TAKAO TSUNEDA, MUNEAKI KAMIYA, SUSUMU YANAGISAWA,
          KIYOSHI YAGI, MAHITO CHIBA, SEIKEN TOKURA, NAOAKI KAWAKAMI
     UNIVERSITY OF AARHUS: FRANK JENSEN
     UNIVERSITY OF IOWA: VISVALDAS KAIRYS, HUI LI
     NATIONAL INST. OF STANDARDS AND TECHNOLOGY: WALT STEVENS, DAVID GARMER
     UNIVERSITY OF PISA: BENEDETTA MENNUCCI, JACOPO TOMASI
     UNIVERSITY OF MEMPHIS: HENRY KURTZ, PRAKASHAN KORAMBATH
     UNIVERSITY OF ALBERTA: TOBY ZENG, MARIUSZ KLOBUKOWSKI
     UNIVERSITY OF NEW ENGLAND: MARK SPACKMAN
     MIE UNIVERSITY: HIROAKI UMEDA
     NAT. INST. OF ADVANCED INDUSTRIAL SCIENCE AND TECHNOLOGY: KAZUO KITAURA
     MICHIGAN STATE UNIVERSITY:
          KAROL KOWALSKI, MARTA WLOCH, JEFFREY GOUR, JESSE LUTZ,
          WEI LI, JUN SHEN, J. EMILIANO DEUSTUA, PIOTR PIECUCH
     UNIVERSITY OF MINNESOTA:
          YINAN SHU
     UNIVERSITY OF SILESIA: MONIKA MUSIAL, STANISLAW KUCHARSKI
     FACULTES UNIVERSITAIRES NOTRE-DAME DE LA PAIX:
          OLIVIER QUINET, BENOIT CHAMPAGNE
     UNIVERSITY OF CALIFORNIA - SANTA BARBARA: BERNARD KIRTMAN
     INSTITUTE FOR MOLECULAR SCIENCE:
          KAZUYA ISHIMURA, MICHIO KATOUDA, AND SHIGERU NAGASE
     UNIVERSITY OF NOTRE DAME: ANNA POMOGAEVA, DAN CHIPMAN
     KYUSHU UNIVERSITY:
          HARUYUKI NAKANO,
          FENG LONG GU, JACEK KORCHOWIEC, MARCIN MAKOWSKI, AND YURIKO AOKI,
          HIROTOSHI MORI AND EISAKU MIYOSHI
     PENNSYLVANIA STATE UNIVERSITY:
          TZVETELIN IORDANOV, CHET SWALINA, JONATHAN SKONE,
          SHARON HAMMES-SCHIFFER
     WASEDA UNIVERSITY:
          MASATO KOBAYASHI, TOMOKO AKAMA, TSUGUKI TOUMA,
          TAKESHI YOSHIKAWA, YASUHIRO IKABATA, JUNJI SEINO,
          YUYA NAKAJIMA, HIROMI NAKAI
     NANJING UNIVERSITY: SHUHUA LI
     UNIVERSITY OF NEBRASKA:
          PEIFENG SU, DEJUN SI, NANDUN THELLAMUREGE, YALI WANG, HUI LI
     UNIVERSITY OF ZURICH: ROBERTO PEVERATI, KIM BALDRIDGE
     N. COPERNICUS UNIVERSITY AND JACKSON STATE UNIVERSITY:
          MARIA BARYSZ
     UNIVERSITY OF COPENHAGEN: Jimmy Kromann, CASPER STEINMANN
     TOKYO INSTITUTE OF TECHNOLOGY: HIROYA NAKATA
     NAGOYA UNIVERSITY: YOSHIO NISHIMOTO, STEPHAN IRLE
     MOSCOW STATE UNIVERSITY: VLADIMIR MIRONOV
     A.N.NESMEYANOV INSTITUTE OF ORGANOELEMENT COMPOUNDS OF RUSSIAN ACADEMY OF SCIENCES:
          IGOR S. GERASIMOV

 EXECUTION OF GAMESS BEGUN Sat Nov 13 05:10:46 2021

            ECHO OF THE FIRST FEW INPUT CARDS -
 INPUT CARD>!File created by the GAMESS Input Deck Generator Plugin for Avogadro            
 INPUT CARD> $BASIS GBASIS=STO NGAUSS=3 $END                                                
 INPUT CARD> $CONTRL SCFTYP=RHF RUNTYP=SADPOINT $END                                        
 INPUT CARD> $STATPT hssend=.t. OPTTOL=0.0005 NSTEP=50 $END                                 
 INPUT CARD> $STATPT HESS=calc ihrep=5 $END                                                 
 INPUT CARD> $FORCE nvib=2 $END                                                             
 INPUT CARD> $ZMAT DLC=.t. auto=.t. nonvdw(1)=1,6,3,4,4,5,5,6,1,2,2,3 $END                  
 INPUT CARD>!$ZMAT IFZMAT(1)=1,1,6,1,3,4 fvalue(1)=2.00,2.00 $END                           
 INPUT CARD>                                                                                
 INPUT CARD> $DATA                                                                          
 INPUT CARD>Title                                                                           
 INPUT CARD>C1                                                                              
 INPUT CARD>C     6.0    -4.41375494     0.41368452    -0.79797339                          
 INPUT CARD>C     6.0    -5.38505697     0.71951652     0.16215333                          
 INPUT CARD>C     6.0    -5.45218325     2.01380038     0.69080871                          
 INPUT CARD>C     6.0    -3.69270754     2.33671188     1.58522081                          
 INPUT CARD>C     6.0    -2.95578814     1.16498435     1.37413192                          
 INPUT CARD>C     6.0    -2.65066171     0.83978283     0.04460699                          
 INPUT CARD>C     6.0    -2.23500705     2.00076604    -0.82132632                          
 INPUT CARD>C     6.0    -2.50073910     3.24746108    -0.48733148                          
 INPUT CARD>C     6.0    -3.25911140     3.56936169     0.77977753                          
 INPUT CARD>O     8.0    -3.51320148     4.71272993     1.13463712                          
 INPUT CARD>H     1.0    -4.31011438    -0.62385702    -1.09817052                          
 INPUT CARD>H     1.0    -4.28912067     1.10257685    -1.62444234                          
 INPUT CARD>H     1.0    -5.72600365    -0.09059576     0.79637188                          
 INPUT CARD>H     1.0    -5.38735533     2.84160566    -0.00534290                          
 INPUT CARD>H     1.0    -6.15455866     2.19979787     1.49624062                          
 INPUT CARD>H     1.0    -3.99061608     2.57349181     2.60255337                          
 INPUT CARD>H     1.0    -3.00154972     0.37338933     2.11205387                          
 INPUT CARD>H     1.0    -2.10261583    -0.07873528    -0.14156972                          
 INPUT CARD>H     1.0    -1.70225859     1.76565981    -1.73630834                          
 INPUT CARD>H     1.0    -2.17775917     4.08688116    -1.08895767                          
 INPUT CARD> $END                                                                           
    1000000 WORDS OF MEMORY AVAILABLE

     BASIS OPTIONS
     -------------
     GBASIS=STO          IGAUSS=       3      POLAR=NONE    
     NDFUNC=       0     NFFUNC=       0     DIFFSP=       F
     NPFUNC=       0      DIFFS=       F     BASNAM=        


     RUN TITLE
     ---------
 Title                                                                           

 THE POINT GROUP OF THE MOLECULE IS C1      
 THE ORDER OF THE PRINCIPAL AXIS IS     0

 ATOM      ATOMIC                      COORDINATES (BOHR)
           CHARGE         X                   Y                   Z
 C           6.0    -8.3407874136        0.7817503882       -1.5079510526
 C           6.0   -10.1762821016        1.3596890664        0.3064253617
 C           6.0   -10.3031323773        3.8055309122        1.3054391718
 C           6.0    -6.9782054034        4.4157451655        2.9956329609
 C           6.0    -5.5856296624        2.2015012015        2.5967327998
 C           6.0    -5.0090243180        1.5869594379        0.0842949882
 C           6.0    -4.2235509051        3.7808995811       -1.5520816913
 C           6.0    -4.7257116658        6.1368115970       -0.9209229624
 C           6.0    -6.1588275095        6.7451155452        1.4735658631
 O           8.0    -6.6389881369        8.9057682218        2.1441532523
 H           1.0    -8.1449351539       -1.1789188233       -2.0752413706
 H           1.0    -8.1052627946        2.0835681269       -3.0697509055
 H           1.0   -10.8205779032       -0.1712011620        1.5049246375
 H           1.0   -10.1806253722        5.3698560626       -0.0100966170
 H           1.0   -11.6304294428        4.1570152027        2.8274847835
 H           1.0    -7.5411709134        4.8631943525        4.9181127377
 H           1.0    -5.6721065093        0.7056035204        3.9912030856
 H           1.0    -3.9733677761       -0.1487881048       -0.2675279790
 H           1.0    -3.2168022953        3.3366132284       -3.2811469928
 H           1.0    -4.1153680985        7.7230855368       -2.0578316085

          INTERNUCLEAR DISTANCES (ANGS.)
          ------------------------------

                1 C          2 C          3 C          4 C          5 C     

   1 C       0.0000000    1.3995729 *  2.4197471 *  3.1460385    2.7217935 *
   2 C       1.3995729 *  0.0000000    1.3996975 *  2.7394321 *  2.7511235 *
   3 C       2.4197471 *  1.3996975 *  0.0000000    1.9999999 *  2.7238590 *
   4 C       3.1460385    2.7394321 *  1.9999999 *  0.0000000    1.4001979 *
   5 C       2.7217935 *  2.7511235 *  2.7238590 *  1.4001979 *  0.0000000  
   6 C       1.9999998 *  2.7395617 *  3.1055461    2.3874981 *  1.4023176 *
   7 C       2.6956104 *  3.5400066    3.5548481    2.8335877 *  2.4572532 *
   8 C       3.4331352    3.8899388    3.4089523    2.5584616 *  2.8299867 *
   9 C       3.7122497    3.6087008    2.6902139 *  1.5349821 *  2.4952540 *
  10 O       4.7987260    4.5161179    3.3527384    2.4250175 *  3.5992452  
  11 H       1.0850586 *  2.1327377 *  3.3855582    4.0431112    3.3386273  
  12 H       1.0831238 *  2.1306655 *  2.7465306 *  3.4900910    3.2822428  
  13 H       2.1256134 *  1.0838633 *  2.1247598 *  3.2631883    3.0958653  
  14 H       2.7333060 *  2.1286903 *  1.0835549 *  2.3783696 *  3.2598357  
  15 H       3.3888075    2.1361542 *  1.0847335 *  2.4672604 *  3.3642061  
  16 H       4.0506044    3.3670821    2.4706681 *  1.0861767 *  2.1363009 *
  17 H       3.2348425    3.0988745    3.2736052    2.1470649 *  1.0831646 *
  18 H       2.4524900 *  3.3917361    4.0362311    3.3681719    2.1382453 *
  19 H       3.1718326    4.2733566    4.4737463    3.9141466    3.4069027  
  20 H       4.3100722    4.8157224    4.2646319    3.5368618    3.8999513  

                6 C          7 C          8 C          9 C         10 O     

   1 C       1.9999998 *  2.6956104 *  3.4331352    3.7122497    4.7987260  
   2 C       2.7395617 *  3.5400066    3.8899388    3.6087008    4.5161179  
   3 C       3.1055461    3.5548481    3.4089523    2.6902139 *  3.3527384  
   4 C       2.3874981 *  2.8335877 *  2.5584616 *  1.5349821 *  2.4250175 *
   5 C       1.4023176 *  2.4572532 *  2.8299867 *  2.4952540 *  3.5992452  
   6 C       0.0000000    1.5068150 *  2.4702935 *  2.8915891 *  4.1148341  
   7 C       1.5068150 *  0.0000000    1.3177309 *  2.4643083 *  3.5797098  
   8 C       2.4702935 *  1.3177309 *  0.0000000    1.5113947 *  2.4089157 *
   9 C       2.8915891 *  2.4643083 *  1.5113947 *  0.0000000    1.2238374 *
  10 O       4.1148341    3.5797098    2.4089157 *  1.2238374 *  0.0000000  
  11 H       2.4903745 *  3.3572845    4.3167195    4.7132133    5.8394915  
  12 H       2.3535790 *  2.3814118 *  3.0152708    3.5953052    4.6095309  
  13 H       3.2997701    4.3792464    4.8158955    4.4137423    5.2993259  
  14 H       3.3910591    3.3630551    2.9545871 *  2.3823235 *  2.8832470 *
  15 H       4.0291655    4.5578081    4.2874881    3.2821699    3.6636529  
  16 H       3.3681322    3.8901324    3.4959057    2.2021280 *  2.6379997 *
  17 H       2.1482509 *  3.4410263    3.9074165    3.4721085    4.4773885  
  18 H       1.0856756 *  2.1917852 *  3.3677345    3.9363656    5.1552492  
  19 H       2.2199946 *  1.0845681 *  2.0960079 *  3.4652300    4.4952268  
  20 H       3.4716355    2.1039915 *  1.0820796 *  2.2202073 *  2.6682329 *

               11 H         12 H         13 H         14 H         15 H     

   1 C       1.0850586 *  1.0831238 *  2.1256134 *  2.7333060 *  3.3888075  
   2 C       2.1327377 *  2.1306655 *  1.0838633 *  2.1286903 *  2.1361542 *
   3 C       3.3855582    2.7465306 *  2.1247598 *  1.0835549 *  1.0847335 *
   4 C       4.0431112    3.4900910    3.2631883    2.3783696 *  2.4672604 *
   5 C       3.3386273    3.2822428    3.0958653    3.2598357    3.3642061  
   6 C       2.4903745 *  2.3535790 *  3.2997701    3.3910591    4.0291655  
   7 C       3.3572845    2.3814118 *  4.3792464    3.3630551    4.5578081  
   8 C       4.3167195    3.0152708    4.8158955    2.9545871 *  4.2874881  
   9 C       4.7132133    3.5953052    4.4137423    2.3823235 *  3.2821699  
  10 O       5.8394915    4.6095309    5.2993259    2.8832470 *  3.6636529  
  11 H       0.0000000    1.8049866 *  2.4245414 *  3.7900068    4.2551111  
  12 H       1.8049866 *  0.0000000    3.0575538    2.6175988 *  3.7976855  
  13 H       2.4245414 *  3.0575538    0.0000000    3.0586328    2.4329773 *
  14 H       3.7900068    2.6175988 *  3.0586328    0.0000000    1.8042370 *
  15 H       4.2551111    3.7976855    2.4329773 *  1.8042370 *  0.0000000  
  16 H       4.9010689    4.4855533    3.6566685    2.9705031 *  2.4589068 *
  17 H       3.6072680    4.0188254    3.0608741    4.0333025    3.6954647  
  18 H       2.4668386 *  2.8939960 *  3.7428351    4.3973245    4.9287297  
  19 H       3.5941511    2.6728353 *  5.1039865    4.2111565    5.5191326  
  20 H       5.1708875    3.6946804    5.7961901    3.6092159    5.1048279  

               16 H         17 H         18 H         19 H         20 H     

   1 C       4.0506044    3.2348425    2.4524900 *  3.1718326    4.3100722  
   2 C       3.3670821    3.0988745    3.3917361    4.2733566    4.8157224  
   3 C       2.4706681 *  3.2736052    4.0362311    4.4737463    4.2646319  
   4 C       1.0861767 *  2.1470649 *  3.3681719    3.9141466    3.5368618  
   5 C       2.1363009 *  1.0831646 *  2.1382453 *  3.4069027    3.8999513  
   6 C       3.3681322    2.1482509 *  1.0856756 *  2.2199946 *  3.4716355  
   7 C       3.8901324    3.4410263    2.1917852 *  1.0845681 *  2.1039915 *
   8 C       3.4959057    3.9074165    3.3677345    2.0960079 *  1.0820796 *
   9 C       2.2021280 *  3.4721085    3.9363656    3.4652300    2.2202073 *
  10 O       2.6379997 *  4.4773885    5.1552492    4.4952268    2.6682329 *
  11 H       4.9010689    3.6072680    2.4668386 *  3.5941511    5.1708875  
  12 H       4.4855533    4.0188254    2.8939960 *  2.6728353 *  3.6946804  
  13 H       3.6566685    3.0608741    3.7428351    5.1039865    5.7961901  
  14 H       2.9705031 *  4.0333025    4.3973245    4.2111565    3.6092159  
  15 H       2.4589068 *  3.6954647    4.9287297    5.5191326    5.1048279  
  16 H       0.0000000    2.4615631 *  4.2578240    4.9714076    4.3822427  
  17 H       2.4615631 *  0.0000000    2.4680596 *  4.2937706    4.9714311  
  18 H       4.2578240    2.4680596 *  0.0000000    2.4708845 *  4.2726515  
  19 H       4.9714076    4.2937706    2.4708845 *  0.0000000    2.4562639 *
  20 H       4.3822427    4.9714311    4.2726515    2.4562639 *  0.0000000  

  * ... LESS THAN  3.000


     ATOMIC BASIS SET
     ----------------
 THE CONTRACTED PRIMITIVE FUNCTIONS HAVE BEEN UNNORMALIZED
 THE CONTRACTED BASIS FUNCTIONS ARE NOW NORMALIZED TO UNITY

  SHELL TYPE  PRIMITIVE        EXPONENT          CONTRACTION COEFFICIENT(S)

 C         

      1   S       1            71.6168373    0.154328967295
      1   S       2            13.0450963    0.535328142282
      1   S       3             3.5305122    0.444634542185

      2   L       4             2.9412494   -0.099967229187    0.155916274999
      2   L       5             0.6834831    0.399512826089    0.607683718598
      2   L       6             0.2222899    0.700115468880    0.391957393099

 C         

      3   S       7            71.6168373    0.154328967295
      3   S       8            13.0450963    0.535328142282
      3   S       9             3.5305122    0.444634542185

      4   L      10             2.9412494   -0.099967229187    0.155916274999
      4   L      11             0.6834831    0.399512826089    0.607683718598
      4   L      12             0.2222899    0.700115468880    0.391957393099

 C         

      5   S      13            71.6168373    0.154328967295
      5   S      14            13.0450963    0.535328142282
      5   S      15             3.5305122    0.444634542185

      6   L      16             2.9412494   -0.099967229187    0.155916274999
      6   L      17             0.6834831    0.399512826089    0.607683718598
      6   L      18             0.2222899    0.700115468880    0.391957393099

 C         

      7   S      19            71.6168373    0.154328967295
      7   S      20            13.0450963    0.535328142282
      7   S      21             3.5305122    0.444634542185

      8   L      22             2.9412494   -0.099967229187    0.155916274999
      8   L      23             0.6834831    0.399512826089    0.607683718598
      8   L      24             0.2222899    0.700115468880    0.391957393099

 C         

      9   S      25            71.6168373    0.154328967295
      9   S      26            13.0450963    0.535328142282
      9   S      27             3.5305122    0.444634542185

     10   L      28             2.9412494   -0.099967229187    0.155916274999
     10   L      29             0.6834831    0.399512826089    0.607683718598
     10   L      30             0.2222899    0.700115468880    0.391957393099

 C         

     11   S      31            71.6168373    0.154328967295
     11   S      32            13.0450963    0.535328142282
     11   S      33             3.5305122    0.444634542185

     12   L      34             2.9412494   -0.099967229187    0.155916274999
     12   L      35             0.6834831    0.399512826089    0.607683718598
     12   L      36             0.2222899    0.700115468880    0.391957393099

 C         

     13   S      37            71.6168373    0.154328967295
     13   S      38            13.0450963    0.535328142282
     13   S      39             3.5305122    0.444634542185

     14   L      40             2.9412494   -0.099967229187    0.155916274999
     14   L      41             0.6834831    0.399512826089    0.607683718598
     14   L      42             0.2222899    0.700115468880    0.391957393099

 C         

     15   S      43            71.6168373    0.154328967295
     15   S      44            13.0450963    0.535328142282
     15   S      45             3.5305122    0.444634542185

     16   L      46             2.9412494   -0.099967229187    0.155916274999
     16   L      47             0.6834831    0.399512826089    0.607683718598
     16   L      48             0.2222899    0.700115468880    0.391957393099

 C         

     17   S      49            71.6168373    0.154328967295
     17   S      50            13.0450963    0.535328142282
     17   S      51             3.5305122    0.444634542185

     18   L      52             2.9412494   -0.099967229187    0.155916274999
     18   L      53             0.6834831    0.399512826089    0.607683718598
     18   L      54             0.2222899    0.700115468880    0.391957393099

 O         

     19   S      55           130.7093214    0.154328967295
     19   S      56            23.8088661    0.535328142282
     19   S      57             6.4436083    0.444634542185

     20   L      58             5.0331513   -0.099967229187    0.155916274999
     20   L      59             1.1695961    0.399512826089    0.607683718598
     20   L      60             0.3803890    0.700115468880    0.391957393099

 H         

     21   S      61             3.4252509    0.154328967295
     21   S      62             0.6239137    0.535328142282
     21   S      63             0.1688554    0.444634542185

 H         

     22   S      64             3.4252509    0.154328967295
     22   S      65             0.6239137    0.535328142282
     22   S      66             0.1688554    0.444634542185

 H         

     23   S      67             3.4252509    0.154328967295
     23   S      68             0.6239137    0.535328142282
     23   S      69             0.1688554    0.444634542185

 H         

     24   S      70             3.4252509    0.154328967295
     24   S      71             0.6239137    0.535328142282
     24   S      72             0.1688554    0.444634542185

 H         

     25   S      73             3.4252509    0.154328967295
     25   S      74             0.6239137    0.535328142282
     25   S      75             0.1688554    0.444634542185

 H         

     26   S      76             3.4252509    0.154328967295
     26   S      77             0.6239137    0.535328142282
     26   S      78             0.1688554    0.444634542185

 H         

     27   S      79             3.4252509    0.154328967295
     27   S      80             0.6239137    0.535328142282
     27   S      81             0.1688554    0.444634542185

 H         

     28   S      82             3.4252509    0.154328967295
     28   S      83             0.6239137    0.535328142282
     28   S      84             0.1688554    0.444634542185

 H         

     29   S      85             3.4252509    0.154328967295
     29   S      86             0.6239137    0.535328142282
     29   S      87             0.1688554    0.444634542185

 H         

     30   S      88             3.4252509    0.154328967295
     30   S      89             0.6239137    0.535328142282
     30   S      90             0.1688554    0.444634542185

 TOTAL NUMBER OF BASIS SET SHELLS             =   30
 NUMBER OF CARTESIAN GAUSSIAN BASIS FUNCTIONS =   60
 NUMBER OF ELECTRONS                          =   72
 CHARGE OF MOLECULE                           =    0
 SPIN MULTIPLICITY                            =    1
 NUMBER OF OCCUPIED ORBITALS (ALPHA)          =   36
 NUMBER OF OCCUPIED ORBITALS (BETA )          =   36
 TOTAL NUMBER OF ATOMS                        =   20
 THE NUCLEAR REPULSION ENERGY IS      509.6734374590

     $CONTRL OPTIONS
     ---------------
 SCFTYP=RHF          RUNTYP=SADPOINT     EXETYP=RUN     
 MPLEVL=       0     CITYP =NONE         CCTYP =NONE         VBTYP =NONE    
 DFTTYP=NONE         TDDFT =NONE    
 MULT  =       1     ICHARG=       0     NZVAR =       0     COORD =UNIQUE  
 PP    =NONE         RELWFN=NONE         LOCAL =NONE         NUMGRD=       F
 ISPHER=      -1     NOSYM =       0     MAXIT =      30     UNITS =ANGS    
 PLTORB=       F     MOLPLT=       F     AIMPAC=       F     FRIEND=        
 NPRINT=       7     IREST =       0     GEOM  =INPUT   
 NORMF =       0     NORMP =       0     ITOL  =      20     ICUT  =       9
 INTTYP=BEST         GRDTYP=BEST         QMTTOL= 1.0E-06

     $SYSTEM OPTIONS
     ---------------
  REPLICATED MEMORY=     1000000 WORDS (ON EVERY NODE).
 DISTRIBUTED MEMDDI=           0 MILLION WORDS IN AGGREGATE,
 MEMDDI DISTRIBUTED OVER   1 PROCESSORS IS           0 WORDS/PROCESSOR.
 TOTAL MEMORY REQUESTED ON EACH PROCESSOR=     1000000 WORDS.
 TIMLIM=      525600.00 MINUTES, OR     365.0 DAYS.
 PARALL= F  BALTYP=  DLB     KDIAG=    0  COREFL= F
 MXSEQ2=     300 MXSEQ3=     150  mem10=         0

          ----------------
          PROPERTIES INPUT
          ----------------

     MOMENTS            FIELD           POTENTIAL          DENSITY
 IEMOM =       1   IEFLD =       0   IEPOT =       0   IEDEN =       0
 WHERE =COMASS     WHERE =NUCLEI     WHERE =NUCLEI     WHERE =NUCLEI  
 OUTPUT=BOTH       OUTPUT=BOTH       OUTPUT=BOTH       OUTPUT=BOTH    
 IEMINT=       0   IEFINT=       0                     IEDINT=       0
                                                       MORB  =       0
          EXTRAPOLATION IN EFFECT
          SOSCF IN EFFECT
 ORBITAL PRINTING OPTION: NPREO=     1    60     2     1

     -------------------------------
     INTEGRAL TRANSFORMATION OPTIONS
     -------------------------------
     NWORD  =            0
     CUTOFF = 1.0E-09     MPTRAN =       0
     DIRTRF =       F     AOINTS =DUP     

          ----------------------
          INTEGRAL INPUT OPTIONS
          ----------------------
 NOPK  =       1 NORDER=       0 SCHWRZ=       T

     ------------------------------------------
     THE POINT GROUP IS C1 , NAXIS= 0, ORDER= 1
     ------------------------------------------

     DIMENSIONS OF THE SYMMETRY SUBSPACES ARE
 A   =   60

 ..... DONE SETTING UP THE RUN .....
 STEP CPU TIME =     0.02 TOTAL CPU TIME =          0.0 (      0.0 MIN)
 TOTAL WALL CLOCK TIME=          0.0 SECONDS, CPU UTILIZATION IS    50.00%


          -----------------------------
          STATIONARY POINT LOCATION RUN
          -----------------------------

 OBTAINING INITIAL HESSIAN, HESS=CALC    

     ---------------------------------
     HESSIAN MATRIX CONTROL PARAMETERS
     ---------------------------------
     METHOD=ANALYTIC   NVIB  =       2   VIBSIZ= 0.01000
     RDHESS=       F   PURIFY=       F   PRTIFC=       F
     VIBANL=       F   DECOMP=       F   PROJCT=       F
     SCLFAC= 1.00000   PRTSCN=       F   NPRT  =       0
     PULCOR=       F   NPUN  =       0   REDOVB=       T
     HSSTYP=GENERAL 
 Old integral subroutine is used

     ------------------------------
     CPHF RESPONSE SOLUTION OPTIONS
     ------------------------------
     POLAR  =       F     NWORD  =       0
     CPHF   =AO      

          ********************
          1 ELECTRON INTEGRALS
          ********************
 ...... END OF ONE-ELECTRON INTEGRALS ......
 STEP CPU TIME =     0.01 TOTAL CPU TIME =          0.0 (      0.0 MIN)
 TOTAL WALL CLOCK TIME=          0.1 SECONDS, CPU UTILIZATION IS    50.00%

          -------------
          GUESS OPTIONS
          -------------
          GUESS =HUCKEL            NORB  =       0          NORDER=       0
          MIX   =       F          PRTMO =       F          PUNMO =       F
          TOLZ  = 1.0E-08          TOLE  = 1.0E-05
          SYMDEN=       F          PURIFY=       F

 INITIAL GUESS ORBITALS GENERATED BY HUCKEL   ROUTINE.
 HUCKEL GUESS REQUIRES     53820 WORDS.

 SYMMETRIES FOR INITIAL GUESS ORBITALS FOLLOW.   BOTH SET(S).
    36 ORBITALS ARE OCCUPIED (   10 CORE ORBITALS).
    11=A       12=A       13=A       14=A       15=A       16=A       17=A   
    18=A       19=A       20=A       21=A       22=A       23=A       24=A   
    25=A       26=A       27=A       28=A       29=A       30=A       31=A   
    32=A       33=A       34=A       35=A       36=A       37=A       38=A   
    39=A       40=A       41=A       42=A       43=A       44=A       45=A   
    46=A   
 ...... END OF INITIAL ORBITAL SELECTION ......
 STEP CPU TIME =     0.02 TOTAL CPU TIME =          0.0 (      0.0 MIN)
 TOTAL WALL CLOCK TIME=          0.1 SECONDS, CPU UTILIZATION IS    71.43%

                    ----------------------
                    AO INTEGRAL TECHNOLOGY
                    ----------------------
     S,P,L SHELL ROTATED AXIS INTEGRALS, REPROGRAMMED BY
        KAZUYA ISHIMURA (IMS) AND JOSE SIERRA (SYNSTAR).
     S,P,D,L SHELL ROTATED AXIS INTEGRALS PROGRAMMED BY
        KAZUYA ISHIMURA (INSTITUTE FOR MOLECULAR SCIENCE).
     S,P,D,F,G SHELL TO TOTAL QUARTET ANGULAR MOMENTUM SUM 5,
        ERIC PROGRAM BY GRAHAM FLETCHER (ELORET AND NASA ADVANCED
        SUPERCOMPUTING DIVISION, AMES RESEARCH CENTER).
     S,P,D,F,G,L SHELL GENERAL RYS QUADRATURE PROGRAMMED BY
        MICHEL DUPUIS (PACIFIC NORTHWEST NATIONAL LABORATORY).

          --------------------
          2 ELECTRON INTEGRALS
          --------------------

 THE -PK- OPTION IS OFF, THE INTEGRALS ARE NOT IN SUPERMATRIX FORM.
 STORING   15000 INTEGRALS/RECORD ON DISK, USING 12 BYTES/INTEGRAL.
 TWO ELECTRON INTEGRAL EVALUATION REQUIRES   89821 WORDS OF MEMORY.
 SCHWARZ INEQUALITY OVERHEAD:      1797 INTEGRALS, T=        0.00
 II,JST,KST,LST =  1  1  1  1 NREC =         1 INTLOC =    1
 II,JST,KST,LST =  2  1  1  1 NREC =         1 INTLOC =    2
 II,JST,KST,LST =  3  1  1  1 NREC =         1 INTLOC =   34
 II,JST,KST,LST =  4  1  1  1 NREC =         1 INTLOC =  144
 II,JST,KST,LST =  5  1  1  1 NREC =         1 INTLOC = 1366
 II,JST,KST,LST =  6  1  1  1 NREC =         1 INTLOC = 1963
 II,JST,KST,LST =  7  1  1  1 NREC =         1 INTLOC = 6867
 II,JST,KST,LST =  8  1  1  1 NREC =         1 INTLOC = 8487
 II,JST,KST,LST =  9  1  1  1 NREC =         2 INTLOC = 5914
 II,JST,KST,LST = 10  1  1  1 NREC =         2 INTLOC = 9717
 II,JST,KST,LST = 11  1  1  1 NREC =         4 INTLOC = 5104
 II,JST,KST,LST = 12  1  1  1 NREC =         4 INTLOC =12230
 II,JST,KST,LST = 13  1  1  1 NREC =         7 INTLOC =12348
 II,JST,KST,LST = 14  1  1  1 NREC =         8 INTLOC = 8610
 II,JST,KST,LST = 15  1  1  1 NREC =        13 INTLOC = 5753
 II,JST,KST,LST = 16  1  1  1 NREC =        14 INTLOC = 8365
 II,JST,KST,LST = 17  1  1  1 NREC =        21 INTLOC =12436
 II,JST,KST,LST = 18  1  1  1 NREC =        23 INTLOC = 8551
 II,JST,KST,LST = 19  1  1  1 NREC =        34 INTLOC = 1318
 II,JST,KST,LST = 20  1  1  1 NREC =        35 INTLOC =12090
 II,JST,KST,LST = 21  1  1  1 NREC =        47 INTLOC =14985
 II,JST,KST,LST = 22  1  1  1 NREC =        51 INTLOC =10787
 II,JST,KST,LST = 23  1  1  1 NREC =        56 INTLOC =  171
 II,JST,KST,LST = 24  1  1  1 NREC =        60 INTLOC = 4117
 II,JST,KST,LST = 25  1  1  1 NREC =        65 INTLOC = 3049
 II,JST,KST,LST = 26  1  1  1 NREC =        70 INTLOC = 3789
 II,JST,KST,LST = 27  1  1  1 NREC =        75 INTLOC =10698
 II,JST,KST,LST = 28  1  1  1 NREC =        81 INTLOC = 5854
 II,JST,KST,LST = 29  1  1  1 NREC =        87 INTLOC = 3903
 II,JST,KST,LST = 30  1  1  1 NREC =        93 INTLOC = 6783
 SCHWARZ INEQUALITY TEST SKIPPED       24157 INTEGRAL BLOCKS.
 TOTAL NUMBER OF NONZERO TWO-ELECTRON INTEGRALS =             1484494
         99 INTEGRAL RECORDS WERE STORED ON DISK FILE  8.
  ...... END OF TWO-ELECTRON INTEGRALS .....
 STEP CPU TIME =     0.28 TOTAL CPU TIME =          0.3 (      0.0 MIN)
 TOTAL WALL CLOCK TIME=          0.3 SECONDS, CPU UTILIZATION IS    94.29%

          --------------------------
                 RHF SCF CALCULATION
          --------------------------

     NUCLEAR ENERGY =       509.6734374590
     MAXIT =   30     NPUNCH=    2
     EXTRAP=T  DAMP=F  SHIFT=F  RSTRCT=F  DIIS=F  DEM=F  SOSCF=T
     DENSITY MATRIX CONV=  1.00E-05
     SOSCF WILL OPTIMIZE     864 ORBITAL ROTATIONS, SOGTOL=   0.250
     MEMORY REQUIRED FOR RHF ITERS=     59496 WORDS.

 ITER EX DEM     TOTAL ENERGY        E CHANGE  DENSITY CHANGE     ORB. GRAD
   1  0  0     -415.5233196793  -415.5233196793   0.524935073   0.000000000
          ---------------START SECOND ORDER SCF---------------
   2  1  0     -416.0288464363    -0.5055267571   0.291548396   0.064715288
   3  2  0     -416.0582510210    -0.0294045847   0.136563135   0.049267770
   4  3  0     -416.0921770627    -0.0339260417   0.023364455   0.007298202
   5  4  0     -416.0930434238    -0.0008663611   0.005279144   0.002939335
   6  5  0     -416.0931515152    -0.0001080914   0.002202940   0.000763334
   7  6  0     -416.0931640535    -0.0000125383   0.000660088   0.000261643
   8  7  0     -416.0931659079    -0.0000018544   0.000203298   0.000073028
   9  8  0     -416.0931660854    -0.0000001775   0.000120299   0.000023578
  10  9  0     -416.0931661171    -0.0000000318   0.000053011   0.000011427
  11 10  0     -416.0931661222    -0.0000000051   0.000025687   0.000003472
  12 11  0     -416.0931661232    -0.0000000010   0.000009522   0.000001376
  13 12  0     -416.0931661233    -0.0000000001   0.000005086   0.000000513

          -----------------
          DENSITY CONVERGED
          -----------------
     TIME TO FORM FOCK OPERATORS=       0.2 SECONDS (       0.0 SEC/ITER)
     TIME TO SOLVE SCF EQUATIONS=       0.1 SECONDS (       0.0 SEC/ITER)

 FINAL RHF ENERGY IS     -416.0931661233 AFTER  13 ITERATIONS

          ------------
          EIGENVECTORS
          ------------

                      1          2          3          4          5
                  -20.2612   -11.1181   -11.0543   -11.0493   -11.0456
                     A          A          A          A          A   
    1  C  1  S   -0.000000   0.000023  -0.030507  -0.005703  -0.085563
    2  C  1  S    0.000003  -0.000004  -0.003831   0.000016  -0.003003
    3  C  1  X    0.000001   0.000006  -0.002146  -0.000205   0.000118
    4  C  1  Y   -0.000002   0.000013  -0.000544  -0.000106  -0.000118
    5  C  1  Z    0.000000  -0.000005  -0.001090  -0.000206  -0.000009
    6  C  2  S   -0.000000   0.000015  -0.000572   0.000062   0.003851
    7  C  2  S    0.000010  -0.000030   0.000351   0.000059  -0.006041
    8  C  2  X   -0.000005   0.000049   0.000196   0.000044   0.000561
    9  C  2  Y    0.000004  -0.000014  -0.000040   0.000040  -0.004161
   10  C  2  Z    0.000008  -0.000037  -0.000140  -0.000010  -0.001915
   11  C  3  S   -0.000005  -0.000222  -0.000699   0.000652   0.958504
   12  C  3  S   -0.000000   0.000304  -0.000021   0.000046   0.035522
   13  C  3  X    0.000026  -0.000228  -0.000069   0.000000  -0.000486
   14  C  3  Y    0.000032  -0.000032   0.000016   0.000026  -0.000548
   15  C  3  Z    0.000020  -0.000141   0.000029   0.000008  -0.000669
   16  C  4  S   -0.000024  -0.001607  -0.004049  -0.005413  -0.240688
   17  C  4  S    0.000270  -0.005398  -0.000068  -0.000229  -0.011288
   18  C  4  X   -0.000122  -0.001135  -0.000004  -0.000084   0.001710
   19  C  4  Y    0.000390  -0.003351   0.000024   0.000014   0.000552
   20  C  4  Z    0.000247   0.001934   0.000189   0.000155   0.000974
   21  C  5  S    0.000004  -0.000277   0.003949  -0.001147  -0.002010
   22  C  5  S    0.000033   0.000070  -0.006881  -0.000015   0.001798
   23  C  5  X   -0.000052  -0.000022  -0.001120  -0.000091  -0.000631
   24  C  5  Y   -0.000024  -0.000018   0.001104  -0.000056   0.001015
   25  C  5  Z    0.000043  -0.000003   0.004287   0.000095   0.000195
   26  C  6  S    0.000003  -0.000254   0.991335   0.024237  -0.003082
   27  C  6  S    0.000007  -0.000064   0.036233  -0.004858   0.000115
   28  C  6  X    0.000021   0.000001   0.001060  -0.001152  -0.000162
   29  C  6  Y   -0.000034  -0.000109   0.000836  -0.003289  -0.000046
   30  C  6  Z   -0.000010  -0.000005   0.001106   0.002256  -0.000082
   31  C  7  S    0.000005  -0.000272  -0.023441   0.991729  -0.002400
   32  C  7  S    0.000054   0.000111  -0.006871   0.035857  -0.000058
   33  C  7  X    0.000026  -0.000041   0.001083  -0.000408  -0.000023
   34  C  7  Y    0.000051  -0.000038   0.003236   0.001580  -0.000002
   35  C  7  Z   -0.000050   0.000071  -0.002643   0.000373   0.000044
   36  C  8  S   -0.000025  -0.001005  -0.001146   0.019707   0.000524
   37  C  8  S    0.000270  -0.005689   0.000345  -0.007398   0.000039
   38  C  8  X   -0.000036   0.002042   0.000010  -0.000928  -0.000052
   39  C  8  Y    0.000511  -0.001073  -0.000170   0.004317  -0.000008
   40  C  8  Z    0.000029  -0.003419   0.000074   0.001170  -0.000009
   41  C  9  S    0.000548   0.992564   0.000267   0.000342  -0.000396
   42  C  9  S   -0.007195   0.032729  -0.000008   0.000149   0.001522
   43  C  9  X    0.001329  -0.000110  -0.000039  -0.000024  -0.000290
   44  C  9  Y   -0.005964   0.000408   0.000105   0.000149  -0.000853
   45  C  9  Z   -0.001842  -0.000053   0.000090   0.000024   0.000603
   46  O 10  S    0.994267   0.000162   0.000005   0.000013  -0.000003
   47  O 10  S    0.025993  -0.005790  -0.000052  -0.000115  -0.000031
   48  O 10  X    0.001160  -0.000356  -0.000007  -0.000021  -0.000019
   49  O 10  Y   -0.005243   0.001608   0.000033   0.000051   0.000026
   50  O 10  Z   -0.001627   0.000519   0.000003   0.000033  -0.000041
   51  H 11  S   -0.000002   0.000002   0.000358  -0.000012   0.000499
   52  H 12  S   -0.000002   0.000006   0.000363  -0.000952   0.000566
   53  H 13  S   -0.000002   0.000006  -0.000001   0.000001   0.000038
   54  H 14  S    0.000080  -0.001059   0.000005  -0.000042  -0.006735
   55  H 15  S   -0.000006  -0.000035  -0.000017  -0.000014  -0.006696
   56  H 16  S   -0.000179  -0.000014  -0.000090  -0.000023   0.001823
   57  H 17  S   -0.000020  -0.000052   0.000080  -0.000080  -0.000014
   58  H 18  S   -0.000016  -0.000026  -0.006924  -0.000128   0.000018
   59  H 19  S   -0.000021  -0.000038   0.000241  -0.006826   0.000025
   60  H 20  S   -0.000192   0.000012  -0.000037   0.000011   0.000014

                      6          7          8          9         10
                  -11.0452   -11.0444   -11.0258   -11.0184   -11.0121
                     A          A          A          A          A   
    1  C  1  S    0.987853   0.016846  -0.000217   0.000973  -0.003464
    2  C  1  S    0.035877   0.000647   0.000047   0.000289  -0.007235
    3  C  1  X   -0.001647  -0.000069   0.000014  -0.000065   0.003118
    4  C  1  Y    0.000021  -0.000074   0.000014   0.000019  -0.001044
    5  C  1  Z   -0.000306  -0.000048  -0.000051  -0.000067  -0.003275
    6  C  2  S    0.004587   0.000521   0.000105  -0.018470   0.991932
    7  C  2  S   -0.007349  -0.001676   0.000028  -0.001166   0.036727
    8  C  2  X   -0.003029   0.000049   0.000008  -0.000608   0.002290
    9  C  2  Y    0.000688  -0.000922  -0.000001  -0.000062   0.000631
   10  C  2  Z    0.003017  -0.000309   0.000007  -0.000359   0.000918
   11  C  3  S    0.078904   0.243865  -0.000270   0.000891  -0.003418
   12  C  3  S    0.003084   0.006238   0.000087   0.000298  -0.007232
   13  C  3  X   -0.000125  -0.002426  -0.000020  -0.000062  -0.000353
   14  C  3  Y   -0.000034  -0.000505   0.000075   0.000003   0.004299
   15  C  3  Z    0.000040  -0.001326  -0.000021  -0.000039   0.001706
   16  C  4  S   -0.037395   0.961756   0.001491  -0.004611   0.000545
   17  C  4  S   -0.001542   0.034097   0.000248  -0.007296   0.000019
   18  C  4  X    0.000132   0.002187   0.000024  -0.002338  -0.000033
   19  C  4  Y    0.000054  -0.000264   0.000031   0.003901   0.000151
   20  C  4  Z    0.000126   0.000679   0.000053   0.000727   0.000050
   21  C  5  S   -0.001017   0.005025  -0.004279   0.991918   0.018709
   22  C  5  S    0.000151  -0.006688  -0.000268   0.036682   0.000198
   23  C  5  X   -0.000110   0.002238  -0.000046  -0.001991   0.000557
   24  C  5  Y    0.000162  -0.003712  -0.000174   0.000134   0.000165
   25  C  5  Z    0.000064  -0.000762   0.000131  -0.001448   0.000217
   26  C  6  S    0.031300   0.004834   0.000710  -0.003139   0.000405
   27  C  6  S   -0.001560   0.000170   0.000406  -0.007218   0.000020
   28  C  6  X    0.002257   0.000186   0.000107   0.001099   0.000085
   29  C  6  Y    0.000557  -0.000160   0.000052  -0.001043  -0.000052
   30  C  6  Z    0.001042   0.000039  -0.000107  -0.004341  -0.000123
   31  C  7  S    0.004720   0.005149  -0.019189   0.001212  -0.000076
   32  C  7  S    0.000131   0.000116  -0.008919   0.000147   0.000008
   33  C  7  X   -0.000020   0.000108   0.000941  -0.000023  -0.000043
   34  C  7  Y    0.000019  -0.000024  -0.004451  -0.000105   0.000016
   35  C  7  Z   -0.000076  -0.000136  -0.001203  -0.000146  -0.000006
   36  C  8  S    0.000344  -0.001221   0.991968   0.004374  -0.000031
   37  C  8  S    0.000019   0.000065   0.036541   0.000091  -0.000014
   38  C  8  X   -0.000021   0.000017   0.000370  -0.000008  -0.000001
   39  C  8  Y   -0.000007   0.000046  -0.001841   0.000124   0.000004
   40  C  8  Z   -0.000014   0.000005  -0.000309  -0.000156  -0.000002
   41  C  9  S   -0.000095   0.002579   0.001994   0.000339  -0.000013
   42  C  9  S    0.000238  -0.005468  -0.005878   0.000129  -0.000010
   43  C  9  X   -0.000048   0.001015  -0.002115  -0.000145  -0.000017
   44  C  9  Y   -0.000131   0.003219   0.000918   0.000067  -0.000014
   45  C  9  Z    0.000093  -0.002272   0.003495   0.000040  -0.000045
   46  O 10  S    0.000001  -0.000022  -0.000022   0.000009   0.000000
   47  O 10  S   -0.000010   0.000244   0.000249  -0.000084   0.000005
   48  O 10  X   -0.000004  -0.000043   0.000111   0.000021   0.000008
   49  O 10  Y    0.000008  -0.000189  -0.000064   0.000046  -0.000003
   50  O 10  Z   -0.000007   0.000122  -0.000181   0.000008   0.000002
   51  H 11  S   -0.006893  -0.000160  -0.000010  -0.000031   0.000107
   52  H 12  S   -0.006911  -0.000131  -0.000105  -0.000057   0.000014
   53  H 13  S    0.000051   0.000009  -0.000004   0.000141  -0.007002
   54  H 14  S   -0.000605  -0.001569  -0.000210  -0.000044   0.000020
   55  H 15  S   -0.000661  -0.001567  -0.000018  -0.000040   0.000105
   56  H 16  S    0.000254  -0.006694  -0.000099   0.000120  -0.000032
   57  H 17  S   -0.000001   0.000068  -0.000031  -0.006919  -0.000118
   58  H 18  S   -0.000085  -0.000155  -0.000094   0.000106  -0.000042
   59  H 19  S    0.000012  -0.000092   0.000266  -0.000106  -0.000003
   60  H 20  S   -0.000001  -0.000067  -0.006868  -0.000089   0.000001

                     11         12         13         14         15
                   -1.3129    -1.0917    -1.0182    -0.9718    -0.9334
                     A          A          A          A          A   
    1  C  1  S   -0.000703  -0.056422  -0.102732   0.069570  -0.076334
    2  C  1  S    0.001711   0.149975   0.276466  -0.191495   0.219014
    3  C  1  X    0.000064  -0.002846  -0.064082   0.032430   0.026215
    4  C  1  Y    0.000384   0.015946   0.018115  -0.010335  -0.007590
    5  C  1  Z    0.000360   0.024444   0.048099  -0.010447  -0.002560
    6  C  2  S   -0.001043  -0.058415  -0.147816   0.066226   0.012183
    7  C  2  S    0.002308   0.145764   0.383136  -0.175423  -0.032747
    8  C  2  X    0.000525   0.028552   0.044923  -0.024068   0.041187
    9  C  2  Y    0.000872   0.018539   0.042974   0.001385  -0.067705
   10  C  2  Z    0.000326  -0.003336  -0.005944   0.025276  -0.057162
   11  C  3  S   -0.003134  -0.051105  -0.114863   0.018427   0.091596
   12  C  3  S    0.007672   0.135739   0.310168  -0.047025  -0.260651
   13  C  3  X    0.002193   0.017486   0.000845   0.020740  -0.002021
   14  C  3  Y    0.001499  -0.021944  -0.069235   0.036085  -0.006132
   15  C  3  Z    0.000088  -0.009149  -0.035350   0.031902  -0.003449
   16  C  4  S   -0.021440  -0.087684  -0.008641  -0.125951   0.084087
   17  C  4  S    0.053624   0.230022   0.026271   0.348138  -0.241635
   18  C  4  X    0.008204   0.032644  -0.030704   0.050599   0.011791
   19  C  4  Y    0.022014  -0.035499  -0.009950  -0.055211  -0.053001
   20  C  4  Z   -0.013805  -0.030395   0.002978   0.003190   0.015724
   21  C  5  S   -0.005572  -0.108607   0.008430  -0.128278  -0.047936
   22  C  5  S    0.012751   0.273114  -0.021857   0.342542   0.130791
   23  C  5  X   -0.002258  -0.019124  -0.019383  -0.043988   0.044802
   24  C  5  Y    0.005340   0.029636  -0.002864   0.051572  -0.081305
   25  C  5  Z   -0.001089  -0.055726   0.016500   0.003506  -0.085391
   26  C  6  S   -0.003225  -0.112728   0.031042  -0.020105  -0.131097
   27  C  6  S    0.007686   0.296997  -0.082812   0.051465   0.372707
   28  C  6  X   -0.000272  -0.008188  -0.034255  -0.018615   0.003220
   29  C  6  Y    0.002725   0.049724  -0.040688  -0.014247  -0.016298
   30  C  6  Z    0.001007   0.027293   0.009842   0.107284   0.020974
   31  C  7  S   -0.006025  -0.103319   0.093466   0.105313  -0.008328
   32  C  7  S    0.014335   0.263306  -0.245735  -0.283101   0.026785
   33  C  7  X   -0.002242  -0.029277   0.011355   0.009953  -0.002550
   34  C  7  Y    0.005606   0.013075  -0.051211  -0.078571  -0.129537
   35  C  7  Z    0.003200   0.045150  -0.024921   0.004802   0.014653
   36  C  8  S   -0.021743  -0.081433   0.091465   0.105520   0.086822
   37  C  8  S    0.052869   0.204542  -0.237304  -0.279834  -0.235778
   38  C  8  X   -0.014045  -0.000845  -0.009338  -0.020089   0.017916
   39  C  8  Y    0.005107  -0.063048   0.058574   0.062803  -0.002278
   40  C  8  Z    0.023301   0.005948   0.004716   0.034781  -0.027496
   41  C  9  S   -0.127581  -0.035759   0.022140  -0.008449   0.070166
   42  C  9  S    0.295700   0.099325  -0.063440   0.023644  -0.207161
   43  C  9  X   -0.032781   0.016195  -0.034063  -0.040901  -0.016502
   44  C  9  Y    0.143409  -0.086813   0.027049  -0.051532   0.116149
   45  C  9  Z    0.044258  -0.024810   0.043802   0.080584   0.035617
   46  O 10  S   -0.214497   0.038238  -0.015264   0.006399  -0.049560
   47  O 10  S    0.749420  -0.142706   0.058509  -0.025016   0.198087
   48  O 10  X    0.033962  -0.002088  -0.006563  -0.010303  -0.001269
   49  O 10  Y   -0.155184   0.005852  -0.001607  -0.011023   0.023995
   50  O 10  Z   -0.048305   0.002668   0.007117   0.021228   0.006288
   51  H 11  S    0.000185   0.028695   0.060133  -0.048133   0.070689
   52  H 12  S    0.000422   0.037080   0.059977  -0.057599   0.064820
   53  H 13  S    0.000306   0.028997   0.087660  -0.042346  -0.008040
   54  H 14  S    0.003454   0.031872   0.071636  -0.011798  -0.082288
   55  H 15  S    0.001284   0.025215   0.068218  -0.006579  -0.078883
   56  H 16  S    0.008817   0.040034   0.010972   0.089833  -0.070799
   57  H 17  S    0.001521   0.051063  -0.000178   0.088609   0.040575
   58  H 18  S    0.000820   0.055682  -0.016064   0.008956   0.119135
   59  H 19  S    0.001622   0.049412  -0.055415  -0.078124   0.014398
   60  H 20  S    0.008802   0.035058  -0.052354  -0.075060  -0.064697

                     16         17         18         19         20
                   -0.8550    -0.7742    -0.7531    -0.7105    -0.6556
                     A          A          A          A          A   
    1  C  1  S   -0.132746   0.035940  -0.009402   0.068966  -0.004024
    2  C  1  S    0.385043  -0.111668   0.033963  -0.220743   0.011418
    3  C  1  X   -0.040195  -0.049886   0.062823  -0.085768  -0.035053
    4  C  1  Y   -0.028911  -0.005264   0.002126  -0.002405   0.142470
    5  C  1  Z   -0.027534   0.082509  -0.038270   0.177097  -0.005034
    6  C  2  S   -0.000763  -0.055337   0.046542  -0.115118   0.004079
    7  C  2  S    0.002087   0.165214  -0.140842   0.355050  -0.015600
    8  C  2  X    0.083148  -0.015963   0.002709  -0.032067   0.049990
    9  C  2  Y   -0.128586  -0.018488   0.049491  -0.110424   0.101286
   10  C  2  Z   -0.120201   0.037283  -0.017345   0.095687  -0.078360
   11  C  3  S    0.132118   0.014102  -0.036901   0.067777  -0.001454
   12  C  3  S   -0.383350  -0.048127   0.114160  -0.217313   0.003259
   13  C  3  X    0.053872  -0.015502  -0.013849   0.033713   0.058076
   14  C  3  Y    0.003084  -0.087681   0.087548  -0.187235  -0.001183
   15  C  3  Z    0.002983  -0.024407  -0.020741  -0.005734  -0.121865
   16  C  4  S   -0.062513   0.081795   0.041381  -0.015599   0.028200
   17  C  4  S    0.180614  -0.253417  -0.121190   0.049802  -0.097395
   18  C  4  X    0.056658   0.046064  -0.014663   0.041659   0.092866
   19  C  4  Y    0.038708  -0.128569   0.151761   0.111305  -0.091154
   20  C  4  Z    0.002996  -0.042239  -0.123895  -0.037935  -0.186635
   21  C  5  S    0.006554  -0.095484   0.057775   0.047488  -0.026673
   22  C  5  S   -0.018854   0.283228  -0.175340  -0.145299   0.080789
   23  C  5  X   -0.038333   0.020729   0.075448   0.040856  -0.020917
   24  C  5  Y    0.063249  -0.100223  -0.043725   0.059057   0.120709
   25  C  5  Z    0.056921  -0.015613  -0.147554  -0.068156  -0.108427
   26  C  6  S    0.071520   0.007696  -0.084261  -0.031722   0.032986
   27  C  6  S   -0.206951  -0.028987   0.259972   0.098721  -0.110882
   28  C  6  X   -0.061035  -0.048620   0.022995   0.065138  -0.114266
   29  C  6  Y   -0.017574  -0.036877  -0.061297   0.042541   0.263548
   30  C  6  Z   -0.004752   0.190780  -0.001298  -0.044156   0.066832
   31  C  7  S    0.052005   0.081135   0.082628  -0.019667  -0.026249
   32  C  7  S   -0.151050  -0.246687  -0.244749   0.062696   0.080046
   33  C  7  X   -0.015047  -0.019731  -0.060612   0.007610  -0.098809
   34  C  7  Y    0.066737   0.130074  -0.108459  -0.093390   0.043045
   35  C  7  Z   -0.004042   0.052522   0.111106   0.050350   0.126128
   36  C  8  S   -0.036957  -0.088604  -0.001484   0.039498   0.032413
   37  C  8  S    0.106537   0.263461   0.016033  -0.118981  -0.113907
   38  C  8  X   -0.031449  -0.013786  -0.114514  -0.028539  -0.049576
   39  C  8  Y    0.043587   0.113854   0.114669  -0.049601  -0.205556
   40  C  8  Z    0.047266   0.027777   0.172625   0.089566   0.074063
   41  C  9  S   -0.062141  -0.000509  -0.107369  -0.051606   0.014042
   42  C  9  S    0.189394   0.001177   0.343328   0.167557  -0.044900
   43  C  9  X    0.027094   0.109763   0.031675  -0.003046  -0.006071
   44  C  9  Y   -0.086916   0.074497  -0.084873  -0.076412  -0.057308
   45  C  9  Z   -0.014408  -0.171463  -0.091817   0.065004  -0.011897
   46  O 10  S    0.036105  -0.001263   0.058953   0.023324  -0.029165
   47  O 10  S   -0.149821   0.005721  -0.258962  -0.104717   0.139349
   48  O 10  X    0.012117   0.053868   0.027601   0.004080  -0.028508
   49  O 10  Y   -0.034203   0.039953  -0.095084  -0.072358   0.074765
   50  O 10  Z   -0.006531  -0.084927  -0.063579   0.030152   0.027210
   51  H 11  S    0.143533  -0.053845   0.022814  -0.121308  -0.100453
   52  H 12  S    0.122399  -0.091282   0.032255  -0.183323   0.074241
   53  H 13  S    0.000495   0.085896  -0.083312   0.236770  -0.105187
   54  H 14  S   -0.119929  -0.050001   0.100624  -0.174455   0.063074
   55  H 15  S   -0.142605  -0.032279   0.045644  -0.121647  -0.094358
   56  H 16  S    0.054687  -0.139330  -0.095836   0.001011  -0.195685
   57  H 17  S   -0.009157   0.143510  -0.110933  -0.115461  -0.078715
   58  H 18  S   -0.075636  -0.027039   0.138640   0.039365  -0.260313
   59  H 19  S   -0.060622  -0.142227  -0.155830   0.013160  -0.080790
   60  H 20  S    0.034304   0.139454  -0.022084  -0.111477  -0.195622

                     21         22         23         24         25
                   -0.6060    -0.5917    -0.5868    -0.5546    -0.5419
                     A          A          A          A          A   
    1  C  1  S    0.015523  -0.007150  -0.001091   0.000318   0.004288
    2  C  1  S   -0.055529   0.020215  -0.001509  -0.002838  -0.022780
    3  C  1  X   -0.069332  -0.026281  -0.089109  -0.025514  -0.120926
    4  C  1  Y    0.272177  -0.122536  -0.058444  -0.206789  -0.123440
    5  C  1  Z    0.069529  -0.062828   0.136960   0.147483   0.183958
    6  C  2  S   -0.027095   0.005959  -0.004761   0.012579  -0.007381
    7  C  2  S    0.083028  -0.016317   0.014699  -0.041388   0.023921
    8  C  2  X    0.104027  -0.073641   0.077058   0.071508   0.087980
    9  C  2  Y    0.191753  -0.088032  -0.058701  -0.133743  -0.108552
   10  C  2  Z   -0.124979   0.006405  -0.109419  -0.030618  -0.144449
   11  C  3  S    0.014164  -0.009102   0.004535  -0.004196   0.001651
   12  C  3  S   -0.051124   0.029059  -0.011880   0.023740  -0.001136
   13  C  3  X    0.156025  -0.090843   0.063801   0.073188   0.074872
   14  C  3  Y   -0.069389   0.084768   0.144528   0.173445   0.214185
   15  C  3  Z   -0.250000   0.016388  -0.110186  -0.034543  -0.157354
   16  C  4  S   -0.001464   0.054910   0.012211  -0.020986  -0.006496
   17  C  4  S    0.007503  -0.185637  -0.036710   0.072037   0.021584
   18  C  4  X   -0.002276   0.078098  -0.061104   0.058390  -0.052589
   19  C  4  Y    0.015529   0.047938   0.232308  -0.135204  -0.065735
   20  C  4  Z    0.007604  -0.121293  -0.053521  -0.212565   0.147192
   21  C  5  S   -0.005233  -0.055770   0.000213  -0.009397   0.017433
   22  C  5  S    0.020166   0.190100   0.000772   0.026123  -0.056481
   23  C  5  X   -0.013758   0.051235   0.107111  -0.090366  -0.025049
   24  C  5  Y   -0.060158  -0.155138  -0.183116   0.207899  -0.026999
   25  C  5  Z    0.085997   0.153651  -0.110306  -0.164652   0.203176
   26  C  6  S    0.003883   0.056288  -0.007215  -0.000609   0.005312
   27  C  6  S   -0.011905  -0.196119   0.019935   0.000035  -0.013998
   28  C  6  X    0.033455   0.019462  -0.023851  -0.060613   0.119151
   29  C  6  Y   -0.083855   0.026173  -0.114148   0.038885  -0.038351
   30  C  6  Z   -0.047346   0.035261   0.205601   0.041434  -0.159968
   31  C  7  S    0.000737  -0.046261   0.006330   0.007857  -0.019778
   32  C  7  S    0.008062   0.157026  -0.040291  -0.016211   0.065767
   33  C  7  X    0.090489   0.104048   0.004272   0.128972  -0.044236
   34  C  7  Y   -0.119912  -0.043446   0.269188  -0.141328  -0.029508
   35  C  7  Z   -0.181572  -0.153822   0.011800  -0.195135   0.129644
   36  C  8  S    0.014226   0.049934  -0.020032   0.018412  -0.005401
   37  C  8  S   -0.034816  -0.163013   0.053602  -0.052177   0.015881
   38  C  8  X   -0.010964  -0.061870   0.108021   0.025809  -0.097734
   39  C  8  Y    0.164791  -0.097216  -0.162236   0.231622  -0.117629
   40  C  8  Z   -0.030191   0.121133  -0.167007  -0.080992   0.174293
   41  C  9  S   -0.033245  -0.086024   0.007398   0.011692   0.020774
   42  C  9  S    0.113887   0.299727  -0.022753  -0.038554  -0.070842
   43  C  9  X   -0.021458  -0.016304  -0.187408  -0.046106   0.083245
   44  C  9  Y    0.055968   0.029174  -0.108707  -0.018645  -0.013829
   45  C  9  Z   -0.003733   0.019230   0.231690  -0.045242  -0.225756
   46  O 10  S    0.034087   0.054695  -0.002580  -0.009701  -0.028582
   47  O 10  S   -0.167490  -0.269466   0.012479   0.049451   0.148010
   48  O 10  X    0.031094   0.042670  -0.170054  -0.021958   0.026094
   49  O 10  Y   -0.121952  -0.246555  -0.092726   0.073878   0.230013
   50  O 10  Z   -0.066373  -0.065598   0.227161  -0.063723  -0.133748
   51  H 11  S   -0.248380   0.114443   0.010917   0.134124   0.045021
   52  H 12  S    0.070950  -0.011086  -0.128254  -0.209631  -0.208451
   53  H 13  S   -0.154318   0.069447  -0.028279   0.026778  -0.012887
   54  H 14  S    0.075577   0.058714   0.148292   0.144879   0.233750
   55  H 15  S   -0.255329   0.075401  -0.086553  -0.034768  -0.112987
   56  H 16  S    0.002041  -0.186760  -0.003527  -0.174485   0.127959
   57  H 17  S    0.085244   0.263953   0.043290  -0.210070   0.111712
   58  H 18  S    0.065074  -0.101121   0.049040  -0.052877   0.098166
   59  H 19  S    0.176766   0.230098  -0.071968   0.212590  -0.076603
   60  H 20  S    0.086890  -0.209202   0.025233   0.169473  -0.176560

                     26         27         28         29         30
                   -0.5156    -0.5060    -0.4866    -0.4785    -0.4506
                     A          A          A          A          A   
    1  C  1  S    0.010055  -0.008405  -0.003782  -0.030590   0.007151
    2  C  1  S   -0.036982   0.017068   0.017658   0.106794  -0.025480
    3  C  1  X    0.040007  -0.217236   0.077658  -0.128029   0.054569
    4  C  1  Y   -0.070435   0.018890  -0.278475   0.095623  -0.143725
    5  C  1  Z   -0.186886  -0.044040   0.058484   0.237818  -0.121021
    6  C  2  S   -0.009521  -0.017084   0.007637   0.007276  -0.002196
    7  C  2  S    0.033608   0.060547  -0.032969  -0.032408   0.007499
    8  C  2  X   -0.147881  -0.083531   0.061978   0.244569  -0.086673
    9  C  2  Y    0.136061  -0.030474   0.300774   0.056069   0.136657
   10  C  2  Z    0.072949  -0.218944   0.036294  -0.192520   0.094802
   11  C  3  S   -0.009837  -0.002884  -0.031992  -0.005308  -0.006826
   12  C  3  S    0.026610   0.000505   0.110490   0.023907   0.022042
   13  C  3  X   -0.012171  -0.204706   0.083471  -0.079553   0.079318
   14  C  3  Y   -0.131533   0.118014  -0.242712  -0.059033  -0.131669
   15  C  3  Z   -0.147894  -0.088882  -0.109044   0.296395  -0.128096
   16  C  4  S   -0.011527   0.008578  -0.001371  -0.000471   0.003661
   17  C  4  S    0.035798  -0.042940   0.004774   0.008672  -0.004369
   18  C  4  X    0.203802   0.194825   0.020813  -0.026519  -0.164513
   19  C  4  Y    0.020009   0.047752  -0.129489   0.049524   0.229276
   20  C  4  Z   -0.172313   0.161975   0.041856  -0.047726   0.169379
   21  C  5  S   -0.004795  -0.021113   0.005591   0.007889  -0.000225
   22  C  5  S    0.018939   0.074329  -0.022294  -0.028148   0.000934
   23  C  5  X    0.035250   0.210193  -0.064626  -0.000107   0.175182
   24  C  5  Y    0.090278   0.141615   0.098083  -0.060620  -0.210749
   25  C  5  Z    0.128404  -0.036348  -0.014892  -0.069268  -0.232398
   26  C  6  S    0.022076  -0.006616   0.002818   0.011557  -0.004975
   27  C  6  S   -0.082701   0.013518  -0.006767  -0.043249   0.007835
   28  C  6  X    0.163175   0.187055  -0.005670  -0.042543  -0.080126
   29  C  6  Y   -0.220921   0.160532  -0.075400  -0.135187   0.166498
   30  C  6  Z   -0.048573   0.098182   0.000318   0.106309   0.273169
   31  C  7  S    0.019226   0.000891  -0.011861   0.002252  -0.003214
   32  C  7  S   -0.072360   0.001653   0.030018  -0.011432   0.021383
   33  C  7  X    0.099099   0.143174   0.042647   0.137408   0.100483
   34  C  7  Y    0.051818  -0.080315   0.146016   0.068090  -0.080279
   35  C  7  Z   -0.063456   0.132916   0.067728  -0.135306  -0.099316
   36  C  8  S   -0.010110   0.003952   0.000976   0.003723   0.011154
   37  C  8  S    0.036168  -0.009158  -0.014308  -0.015826  -0.036074
   38  C  8  X    0.029071   0.187529   0.107106   0.000021  -0.056523
   39  C  8  Y   -0.017685   0.111583  -0.145306  -0.052894   0.083812
   40  C  8  Z    0.063160   0.040988   0.011916   0.147393   0.117010
   41  C  9  S    0.006458   0.008414  -0.007581  -0.014746   0.000398
   42  C  9  S   -0.014421  -0.034046   0.021429   0.057968   0.001192
   43  C  9  X    0.101256   0.229244   0.099882   0.169268   0.059571
   44  C  9  Y   -0.301949   0.072761   0.211260  -0.130839  -0.096081
   45  C  9  Z    0.038410   0.175951   0.102506  -0.041393  -0.143902
   46  O 10  S   -0.055818   0.009992   0.034656  -0.021403  -0.018415
   47  O 10  S    0.297696  -0.053773  -0.190490   0.119149   0.105890
   48  O 10  X   -0.057479   0.209677   0.199084   0.104605   0.019186
   49  O 10  Y    0.322688  -0.055809  -0.254363   0.205007   0.259750
   50  O 10  Z    0.224478   0.106940  -0.061176   0.029569  -0.098709
   51  H 11  S    0.102740  -0.021035   0.270403  -0.110408   0.166476
   52  H 12  S    0.067752   0.011803  -0.217587  -0.091851  -0.010119
   53  H 13  S    0.008029  -0.039220  -0.239613  -0.251743  -0.015778
   54  H 14  S    0.005972   0.094208  -0.075956  -0.244350   0.002558
   55  H 15  S   -0.109077   0.081528  -0.114268   0.277011  -0.157205
   56  H 16  S   -0.181693   0.079612   0.000236  -0.014167   0.256873
   57  H 17  S    0.031041  -0.085730  -0.092950  -0.021991  -0.012007
   58  H 18  S    0.223876  -0.056419   0.065153   0.048944  -0.233039
   59  H 19  S    0.052401  -0.023347  -0.049631   0.163868   0.174726
   60  H 20  S   -0.016280   0.105885  -0.092472  -0.129424  -0.037598

                     31         32         33         34         35
                   -0.4448    -0.4166    -0.3568    -0.3143    -0.2712
                     A          A          A          A          A   
    1  C  1  S   -0.009213   0.002097  -0.005650   0.000051  -0.027299
    2  C  1  S    0.037917   0.006774   0.006881  -0.000757   0.131666
    3  C  1  X    0.023752   0.243923  -0.071953  -0.000763   0.330247
    4  C  1  Y   -0.130626   0.078312   0.047053   0.015050   0.088958
    5  C  1  Z    0.147598   0.070686  -0.140638  -0.028773   0.198324
    6  C  2  S    0.002702   0.020826   0.012978   0.003309   0.006647
    7  C  2  S   -0.015267  -0.073847  -0.049579  -0.010589  -0.028340
    8  C  2  X    0.115449   0.064607   0.109031  -0.012538   0.058821
    9  C  2  Y    0.128557  -0.134317  -0.072622  -0.015045   0.028934
   10  C  2  Z   -0.021929   0.194902   0.093811   0.004977   0.123656
   11  C  3  S   -0.014591  -0.005349  -0.011605   0.002309   0.012013
   12  C  3  S    0.052146   0.021636   0.066249  -0.010740  -0.071764
   13  C  3  X    0.006919   0.114019   0.316611  -0.000203  -0.231011
   14  C  3  Y   -0.117517   0.153835   0.024654   0.020193   0.007875
   15  C  3  Z    0.047311  -0.056216   0.157050  -0.019595  -0.119401
   16  C  4  S    0.023866   0.008952  -0.015863   0.031820   0.012605
   17  C  4  S   -0.087561  -0.029139   0.085492  -0.144790  -0.069315
   18  C  4  X   -0.011931  -0.046366  -0.265545  -0.096883   0.275258
   19  C  4  Y    0.115059   0.023953  -0.041191  -0.265004   0.118656
   20  C  4  Z   -0.056682  -0.002389  -0.194314   0.176194   0.122963
   21  C  5  S    0.004607   0.017121   0.011808  -0.007295   0.001800
   22  C  5  S   -0.007949  -0.063387  -0.041838   0.023274  -0.003349
   23  C  5  X    0.002496  -0.131939  -0.030541  -0.118488   0.016780
   24  C  5  Y   -0.143713  -0.117933  -0.080509   0.046674   0.056224
   25  C  5  Z    0.191246  -0.016899   0.020266  -0.082009   0.069265
   26  C  6  S   -0.002385  -0.006453   0.018108   0.001438  -0.005908
   27  C  6  S    0.020089   0.037284  -0.078642  -0.009209   0.050591
   28  C  6  X   -0.020142  -0.246857   0.231683  -0.027397  -0.249422
   29  C  6  Y    0.254663  -0.040636   0.070178  -0.044623  -0.053421
   30  C  6  Z   -0.234627  -0.068230   0.020495   0.082949  -0.089147
   31  C  7  S   -0.009996   0.003078  -0.009184   0.012261   0.006447
   32  C  7  S    0.052096  -0.008959   0.036241  -0.044400  -0.025673
   33  C  7  X   -0.082382  -0.011260   0.352920   0.169304   0.286729
   34  C  7  Y   -0.290858   0.010337  -0.010944  -0.023535   0.063122
   35  C  7  Z    0.155827  -0.040414   0.285150  -0.009488   0.124239
   36  C  8  S   -0.005648  -0.000668   0.006441  -0.037099   0.005664
   37  C  8  S    0.038460   0.002656  -0.027226   0.165556  -0.027870
   38  C  8  X    0.009066   0.084912   0.371666  -0.045505   0.350074
   39  C  8  Y    0.210877   0.000427   0.019493   0.048147  -0.002031
   40  C  8  Z   -0.012215   0.075953   0.154281   0.323308   0.158937
   41  C  9  S   -0.002638  -0.002316   0.006956  -0.001059  -0.009001
   42  C  9  S    0.011150   0.012117  -0.025227   0.002719   0.037572
   43  C  9  X   -0.021148   0.385473  -0.047820   0.050363  -0.131540
   44  C  9  Y   -0.141566  -0.011878   0.021569   0.065611  -0.051242
   45  C  9  Z    0.109896   0.208169   0.006025  -0.176799  -0.042582
   46  O 10  S   -0.011110  -0.002742   0.000767   0.000306   0.000258
   47  O 10  S    0.064602   0.016506  -0.006714  -0.001535   0.001258
   48  O 10  X   -0.140379   0.413452   0.008015  -0.431551  -0.284188
   49  O 10  Y    0.013066   0.050298   0.014603  -0.279848   0.050971
   50  O 10  Z    0.311365   0.268717  -0.126559   0.590470  -0.287600
   51  H 11  S    0.110780  -0.078741  -0.008678  -0.010950  -0.072663
   52  H 12  S   -0.182783   0.044829   0.124411   0.027634  -0.031393
   53  H 13  S   -0.165057   0.173152   0.060644   0.018770   0.025308
   54  H 14  S   -0.103218   0.160348  -0.040399   0.041101   0.069996
   55  H 15  S    0.041694  -0.086394  -0.069300  -0.016596   0.049209
   56  H 16  S   -0.070045   0.000756  -0.103229   0.110559   0.042289
   57  H 17  S    0.248201   0.050279   0.069490  -0.113907   0.009398
   58  H 18  S   -0.190249  -0.068041   0.011890   0.009174  -0.080028
   59  H 19  S   -0.094941   0.022745  -0.058409   0.116496   0.009530
   60  H 20  S    0.203970  -0.017839   0.035680  -0.120122   0.000823

                     36         37         38         39         40
                   -0.2234     0.2067     0.2159     0.3540     0.3894
                     A          A          A          A          A   
    1  C  1  S   -0.025323  -0.000446  -0.041468  -0.031125  -0.030398
    2  C  1  S    0.090283   0.028720   0.208748   0.134025   0.159980
    3  C  1  X    0.163124   0.142375   0.359353   0.333553   0.335110
    4  C  1  Y    0.043339   0.008906   0.081929   0.039753   0.066275
    5  C  1  Z    0.111096   0.032137   0.189462   0.278148   0.112748
    6  C  2  S    0.021703  -0.018744  -0.007581   0.001259  -0.007707
    7  C  2  S   -0.105086   0.105385   0.043141  -0.009064   0.057402
    8  C  2  X    0.428847  -0.420376  -0.198808   0.045936  -0.264892
    9  C  2  Y   -0.041647  -0.005664   0.033910   0.004744   0.006720
   10  C  2  Z    0.330583  -0.316941  -0.099153   0.037053  -0.198663
   11  C  3  S   -0.030057  -0.025813   0.029758   0.040283  -0.021912
   12  C  3  S    0.113621   0.149997  -0.130209  -0.184697   0.121919
   13  C  3  X    0.245359   0.308898  -0.186409  -0.455637   0.201674
   14  C  3  Y    0.010455   0.076010   0.002176   0.004688   0.108153
   15  C  3  Z    0.114194   0.166841  -0.070697  -0.261887   0.096230
   16  C  4  S    0.031975  -0.009137  -0.022294  -0.051470  -0.008578
   17  C  4  S   -0.123855   0.071843   0.097691   0.249639   0.063727
   18  C  4  X    0.180406  -0.206032  -0.235174  -0.472253   0.035135
   19  C  4  Y    0.030052  -0.002534  -0.047743  -0.152724  -0.029122
   20  C  4  Z    0.126711  -0.086442  -0.118810  -0.234724   0.035561
   21  C  5  S   -0.022664  -0.019154  -0.006835  -0.002368   0.020655
   22  C  5  S    0.107796   0.108344   0.037525   0.013685  -0.115177
   23  C  5  X    0.496086   0.541915   0.170921   0.044544  -0.108072
   24  C  5  Y    0.212798   0.185643   0.103780  -0.034464  -0.088589
   25  C  5  Z    0.117296   0.156199   0.097334  -0.050846  -0.022830
   26  C  6  S    0.030043  -0.019813   0.009474   0.053885   0.006553
   27  C  6  S   -0.119060   0.111369  -0.017184  -0.269968  -0.014060
   28  C  6  X    0.252195  -0.280539   0.074270   0.486100   0.182785
   29  C  6  Y    0.042288  -0.074432   0.015110   0.121507   0.026477
   30  C  6  Z    0.103004  -0.167800   0.001406   0.158792   0.091343
   31  C  7  S    0.008318   0.015178   0.009065  -0.001349  -0.000993
   32  C  7  S   -0.034230  -0.073465  -0.042333   0.008467   0.007831
   33  C  7  X   -0.060408  -0.193516   0.414909  -0.370244   0.340270
   34  C  7  Y    0.025932   0.060237   0.067334  -0.028657   0.019693
   35  C  7  Z   -0.073394  -0.172986   0.196018  -0.201852   0.180413
   36  C  8  S   -0.004766  -0.007493  -0.002928   0.001414  -0.002306
   37  C  8  S    0.021407   0.033491   0.013133  -0.008394   0.012992
   38  C  8  X   -0.169317   0.256976  -0.257795   0.209651  -0.497858
   39  C  8  Y   -0.004491   0.012743  -0.012764   0.011825  -0.018371
   40  C  8  Z   -0.057106   0.175032  -0.150990   0.133439  -0.299703
   41  C  9  S    0.009037   0.018636   0.003415   0.001756  -0.000272
   42  C  9  S   -0.038310  -0.089402  -0.018428  -0.011662   0.003404
   43  C  9  X    0.024063   0.100079  -0.371080   0.191325   0.524741
   44  C  9  Y    0.049130   0.086011  -0.000003   0.000964   0.025570
   45  C  9  Z   -0.042033  -0.036705  -0.245776   0.112369   0.305921
   46  O 10  S   -0.000120  -0.002085  -0.000908  -0.001451   0.000127
   47  O 10  S   -0.001297   0.009062   0.004996   0.009500  -0.001432
   48  O 10  X   -0.042562  -0.103425   0.447713  -0.147066  -0.378779
   49  O 10  Y   -0.046535  -0.046426   0.005127  -0.021759  -0.013189
   50  O 10  Z    0.070784  -0.003876   0.274472  -0.089545  -0.217116
   51  H 11  S    0.002695  -0.044938  -0.056633   0.011886  -0.037135
   52  H 12  S    0.072352  -0.130702  -0.061054   0.066957  -0.071156
   53  H 13  S    0.047132  -0.016158  -0.004505   0.002189   0.010136
   54  H 14  S    0.060957  -0.129063  -0.044018  -0.032498  -0.079858
   55  H 15  S   -0.003106  -0.076835   0.005795  -0.001322  -0.040105
   56  H 16  S    0.005900  -0.067683   0.002731  -0.019038  -0.091431
   57  H 17  S   -0.061084  -0.020068  -0.006487   0.002970   0.030498
   58  H 18  S    0.005108  -0.054420  -0.068562   0.057225  -0.086190
   59  H 19  S    0.023127   0.030692   0.008704  -0.006590  -0.017210
   60  H 20  S   -0.024819  -0.041514  -0.022153   0.013737  -0.016470

                     41         42         43         44         45
                    0.5165     0.5729     0.5898     0.6220     0.6227
                     A          A          A          A          A   
    1  C  1  S   -0.010596   0.024677   0.003102  -0.007659   0.036456
    2  C  1  S    0.037374  -0.159210  -0.018435   0.051634  -0.230069
    3  C  1  X    0.421716   0.044017   0.013112  -0.036263   0.005244
    4  C  1  Y    0.070070   0.249836   0.187512   0.054324   0.382268
    5  C  1  Z    0.186561  -0.031900  -0.121433  -0.025505  -0.108534
    6  C  2  S   -0.031068   0.020528   0.013936  -0.000828   0.042402
    7  C  2  S    0.194236  -0.127440  -0.087447   0.002218  -0.268078
    8  C  2  X   -0.279821   0.096756   0.084048  -0.044928   0.219093
    9  C  2  Y    0.045106   0.189661   0.151049   0.006719   0.368781
   10  C  2  Z   -0.234911  -0.140254  -0.099978   0.025554  -0.244679
   11  C  3  S   -0.011476   0.013118   0.025910   0.027803   0.031028
   12  C  3  S    0.041962  -0.084638  -0.166039  -0.174781  -0.195095
   13  C  3  X    0.406481   0.125602   0.127394   0.031065   0.160441
   14  C  3  Y    0.099591   0.128339   0.028233  -0.113662   0.157912
   15  C  3  Z    0.230614  -0.211881  -0.116853   0.100778  -0.333589
   16  C  4  S    0.043402  -0.000282   0.047373   0.111529  -0.010039
   17  C  4  S   -0.230014  -0.020718  -0.290788  -0.655926   0.074334
   18  C  4  X    0.456650   0.121036   0.039725  -0.249708  -0.126313
   19  C  4  Y    0.003933   0.215918  -0.096163  -0.488520  -0.108256
   20  C  4  Z    0.235922  -0.332103  -0.153779   0.149927   0.213721
   21  C  5  S    0.010261   0.043928   0.019028   0.002542  -0.050078
   22  C  5  S   -0.078872  -0.274480  -0.121466  -0.020687   0.314913
   23  C  5  X   -0.363779  -0.012533  -0.035293   0.061074   0.052057
   24  C  5  Y   -0.140896   0.252718   0.102923   0.096005  -0.227793
   25  C  5  Z   -0.081620  -0.225833  -0.165320   0.165612   0.240024
   26  C  6  S    0.040365   0.055078  -0.065055  -0.015330   0.006445
   27  C  6  S   -0.213842  -0.347970   0.377593   0.089136  -0.023641
   28  C  6  X    0.403860  -0.177725   0.196816  -0.107875  -0.032209
   29  C  6  Y    0.095458   0.297660   0.314486   0.188850  -0.324961
   30  C  6  Z    0.299495   0.020664  -0.292640   0.044300   0.093477
   31  C  7  S   -0.015741   0.050685   0.021217   0.051361  -0.048212
   32  C  7  S    0.089708  -0.309295  -0.113688  -0.343526   0.287614
   33  C  7  X   -0.296508  -0.104422   0.216725  -0.084856  -0.018074
   34  C  7  Y   -0.070272   0.108170   0.257280   0.145361  -0.199363
   35  C  7  Z   -0.097256   0.258513  -0.496203   0.194815   0.048799
   36  C  8  S    0.014585  -0.010835   0.023347   0.111063   0.000523
   37  C  8  S   -0.084974   0.041397  -0.120268  -0.683387   0.001333
   38  C  8  X    0.249159  -0.163559   0.310237   0.013074  -0.052240
   39  C  8  Y   -0.004712  -0.031094   0.084670  -0.402604  -0.032861
   40  C  8  Z    0.162500   0.217689  -0.488913  -0.067355   0.082212
   41  C  9  S   -0.017891   0.090803  -0.088992  -0.128706  -0.018934
   42  C  9  S    0.102254  -0.535313   0.525778   0.756980   0.109378
   43  C  9  X   -0.317246   0.019008   0.194647   0.042111  -0.093437
   44  C  9  Y   -0.073215   0.134844  -0.045358  -0.452592  -0.086741
   45  C  9  Z   -0.117223  -0.012899  -0.326146   0.108563   0.147538
   46  O 10  S    0.002664  -0.018909   0.013329   0.007179   0.003894
   47  O 10  S   -0.015615   0.118460  -0.079595  -0.029261  -0.025364
   48  O 10  X    0.166541   0.016340  -0.074477  -0.004895   0.020306
   49  O 10  Y    0.038005  -0.170149   0.072482   0.071063   0.055837
   50  O 10  Z    0.078368  -0.038809   0.117984  -0.062521  -0.035489
   51  H 11  S    0.069079   0.309088   0.174695   0.020090   0.463862
   52  H 12  S   -0.001875  -0.125764  -0.220051  -0.077522  -0.241355
   53  H 13  S   -0.041946   0.347813   0.258824  -0.031574   0.652027
   54  H 14  S   -0.011327  -0.215446  -0.043229   0.225414  -0.277965
   55  H 15  S    0.066268   0.273384   0.251935   0.034075   0.439666
   56  H 16  S    0.032587   0.311189   0.348941   0.244704  -0.261401
   57  H 17  S   -0.021341   0.517968   0.274541  -0.056218  -0.517520
   58  H 18  S    0.053230   0.538525  -0.087333   0.172196  -0.234872
   59  H 19  S   -0.003885   0.483275  -0.424460   0.399086  -0.137672
   60  H 20  S    0.085779   0.166098  -0.390560   0.656182   0.101892

                     46         47         48         49         50
                    0.6647     0.6976     0.7143     0.7259     0.7411
                     A          A          A          A          A   
    1  C  1  S    0.034355  -0.116288  -0.026744   0.126736  -0.066436
    2  C  1  S   -0.215501   0.739504   0.161785  -0.810975   0.419265
    3  C  1  X    0.068894   0.008793  -0.153186   0.088293   0.130478
    4  C  1  Y   -0.246252  -0.252155   0.261557  -0.437103  -0.122579
    5  C  1  Z    0.105779  -0.343023   0.112818   0.300686  -0.295036
    6  C  2  S   -0.010942   0.070763   0.062451  -0.014094  -0.006889
    7  C  2  S    0.064233  -0.431629  -0.387730   0.087399   0.069384
    8  C  2  X    0.015733   0.095604  -0.028009   0.158956   0.056808
    9  C  2  Y   -0.123573  -0.036846   0.072955  -0.238999  -0.045635
   10  C  2  Z   -0.077038  -0.066267   0.044954  -0.222531   0.013196
   11  C  3  S    0.001822  -0.088409  -0.122612  -0.090367  -0.066957
   12  C  3  S   -0.012239   0.553600   0.786222   0.581902   0.421508
   13  C  3  X    0.120246  -0.015636  -0.352375   0.091203  -0.037180
   14  C  3  Y   -0.051384   0.068227   0.267394   0.223322   0.265599
   15  C  3  Z   -0.191203  -0.272421   0.177985  -0.465731  -0.086681
   16  C  4  S    0.013333  -0.024190  -0.045364   0.025262   0.130881
   17  C  4  S   -0.091203   0.154080   0.300350  -0.141938  -0.818020
   18  C  4  X    0.224336   0.207857   0.043821  -0.074954  -0.154514
   19  C  4  Y   -0.160788  -0.147015   0.044703  -0.010763   0.128839
   20  C  4  Z   -0.476076  -0.073074   0.200377   0.197399  -0.085131
   21  C  5  S    0.000233   0.056009   0.046784   0.001575  -0.146739
   22  C  5  S   -0.008770  -0.353506  -0.306008  -0.006656   0.935408
   23  C  5  X    0.209058   0.000161   0.017477  -0.068419  -0.137134
   24  C  5  Y   -0.134981  -0.115299   0.035680   0.075525   0.050083
   25  C  5  Z   -0.218425  -0.018175   0.029530   0.140229  -0.060626
   26  C  6  S    0.080174  -0.079918   0.031157  -0.051513   0.115964
   27  C  6  S   -0.479346   0.509591  -0.192312   0.304696  -0.728559
   28  C  6  X   -0.108283   0.303448  -0.202199  -0.035339  -0.097942
   29  C  6  Y   -0.473861  -0.193978   0.121895   0.187400   0.184673
   30  C  6  Z    0.025483  -0.035498   0.283835  -0.041250  -0.189511
   31  C  7  S   -0.120860   0.061839  -0.085964   0.052991  -0.026037
   32  C  7  S    0.744794  -0.409095   0.547808  -0.325693   0.160727
   33  C  7  X    0.072964  -0.129483  -0.003843   0.045907   0.064745
   34  C  7  Y   -0.284388   0.051759   0.081461   0.161664  -0.169120
   35  C  7  Z    0.037416   0.005532  -0.012123   0.033236  -0.065167
   36  C  8  S    0.091378  -0.004000   0.106818  -0.003623  -0.043173
   37  C  8  S   -0.551624   0.011855  -0.682697   0.019221   0.287695
   38  C  8  X   -0.021426   0.017931   0.051883   0.041388  -0.037989
   39  C  8  Y   -0.158129  -0.232300   0.033164   0.007198   0.102453
   40  C  8  Z   -0.021908   0.092741  -0.084914  -0.103294   0.003386
   41  C  9  S    0.005059   0.028088  -0.048562  -0.040350  -0.023992
   42  C  9  S   -0.042731  -0.182819   0.292968   0.242766   0.143288
   43  C  9  X    0.195191  -0.035992   0.125464  -0.060194  -0.147403
   44  C  9  Y   -0.060531  -0.114105   0.093448  -0.068473  -0.090482
   45  C  9  Z   -0.290390  -0.099881  -0.358527   0.011299   0.287191
   46  O 10  S   -0.017009  -0.020921   0.011309   0.007644   0.010137
   47  O 10  S    0.120871   0.143804  -0.074622  -0.050714  -0.069284
   48  O 10  X   -0.023034   0.057387  -0.053978   0.003343   0.020561
   49  O 10  Y   -0.181568  -0.167215   0.050139   0.072619   0.114631
   50  O 10  Z    0.027033  -0.028385   0.137966   0.011420  -0.065172
   51  H 11  S   -0.112360  -0.651565   0.182605   0.042550  -0.388108
   52  H 12  S    0.322810  -0.425992  -0.128491   0.860117  -0.323698
   53  H 13  S   -0.083362   0.285421   0.225591  -0.044293  -0.021896
   54  H 14  S   -0.088723  -0.457764  -0.429909  -0.737244  -0.416003
   55  H 15  S    0.220434  -0.091783  -0.733824   0.089468  -0.202261
   56  H 16  S    0.581438   0.083405  -0.285477  -0.112577   0.403543
   57  H 17  S    0.041652   0.117199   0.148228  -0.032366  -0.392663
   58  H 18  S   -0.088982  -0.534430   0.327775  -0.001788   0.513243
   59  H 19  S   -0.468371   0.288954  -0.261240   0.173317  -0.188548
   60  H 20  S    0.420330   0.199329   0.256478  -0.082510  -0.185412

                     51         52         53         54         55
                    0.7566     0.7867     0.8227     0.8762     0.8828
                     A          A          A          A          A   
    1  C  1  S    0.067818   0.037192  -0.025597   0.010213   0.023108
    2  C  1  S   -0.438144  -0.232676   0.159027  -0.071232  -0.168345
    3  C  1  X   -0.102477   0.251355  -0.163728   0.005918   0.170523
    4  C  1  Y    0.441903   0.110420  -0.079788  -0.142992   0.050752
    5  C  1  Z    0.209691  -0.485259   0.374387   0.071309  -0.134417
    6  C  2  S   -0.024352  -0.164966   0.110695   0.012981   0.001683
    7  C  2  S    0.160367   1.092085  -0.740562  -0.088159  -0.011660
    8  C  2  X   -0.027891   0.182784  -0.148193   0.050990   0.150205
    9  C  2  Y    0.051788  -0.060868   0.038484   0.155375  -0.273763
   10  C  2  Z    0.092946   0.217178  -0.142889  -0.127444  -0.232044
   11  C  3  S   -0.056030   0.053354  -0.020931   0.006667  -0.023389
   12  C  3  S    0.360524  -0.335178   0.131462  -0.052689   0.168488
   13  C  3  X   -0.291585  -0.021504   0.026392   0.000420  -0.038470
   14  C  3  Y    0.313392   0.511953  -0.421506  -0.053250  -0.239140
   15  C  3  Z    0.364574  -0.069015   0.078281   0.098563  -0.028118
   16  C  4  S    0.054523  -0.053873  -0.012673   0.033203  -0.082785
   17  C  4  S   -0.344813   0.339307   0.082752  -0.235938   0.574574
   18  C  4  X    0.129385  -0.001673   0.082040  -0.281351   0.119683
   19  C  4  Y   -0.127437   0.335311   0.465369   0.414610  -0.357870
   20  C  4  Z   -0.285170   0.011501  -0.185991   0.306843   0.423217
   21  C  5  S   -0.033040  -0.046106  -0.118365  -0.058179   0.003282
[...]
 18   H            X -0.04789985  0.01914874 -0.02835182 -0.03528262 -0.00893237
                   Y -0.10340731  0.01038867  0.02262662 -0.07574015 -0.01670171
                   Z  0.02268221 -0.00079764 -0.00679097  0.05008236  0.00665273
 19   H            X -0.00566753  0.00032903  0.00179522 -0.07126186 -0.01586212
                   Y -0.06709752  0.00362239  0.02309681 -0.11386102 -0.02083296
                   Z  0.02363421 -0.00113552  0.00027408  0.12172831  0.02640665
 20   H            X  0.00264789 -0.00046505 -0.00010912 -0.05825192 -0.04616675
                   Y  0.01251506 -0.00056597 -0.00402562 -0.03628530  0.03433014
                   Z -0.01170822 -0.00114878  0.01621811  0.12129046  0.07871539

 TRANS. SAYVETZ    X -0.00000173 -0.00000033 -0.00000201 -0.00000079 -0.00000320
                   Y -0.00000052  0.00000162 -0.00000179 -0.00000037 -0.00000091
                   Z  0.00000381  0.00000187  0.00000226  0.00000189 -0.00000034
               TOTAL  0.00000422  0.00000249  0.00000351  0.00000208  0.00000334

   ROT. SAYVETZ    X  0.00001693 -0.00019720 -0.00000951 -0.00003542  0.00001561
                   Y  0.00008560  0.00010964 -0.00010712  0.00001800 -0.00000295
                   Z -0.00007329 -0.00001311  0.00005969 -0.00001132  0.00001481
               TOTAL  0.00011395  0.00022602  0.00012299  0.00004132  0.00002172

                           51          52          53          54          55
       FREQUENCY:      3630.08     3634.32     3686.08     3693.06     3695.66  
        SYMMETRY:         A           A           A           A           A   
    REDUCED MASS:      1.06267     1.06462     1.09101     1.09411     1.09590
    IR INTENSITY:      0.09888     0.07245     0.19344     0.04550     0.14157

  1   C            X  0.01362083  0.00690036 -0.00220762  0.00002316  0.00437226
                   Y -0.01861283 -0.00988015  0.00035754  0.00087699  0.00160896
                   Z -0.05530264 -0.03072529  0.00604428 -0.00181090 -0.00998410
  2   C            X  0.00021963 -0.00323733  0.00621754 -0.00345113 -0.02820987
                   Y  0.00776991  0.00259895  0.01313556 -0.00782016 -0.06018850
                   Z -0.00492965  0.00598026 -0.00998428  0.00553888  0.04556987
  3   C            X -0.01522056  0.03010378  0.00170993 -0.00041672 -0.00103353
                   Y  0.02723210 -0.05266404 -0.00626956  0.00231793  0.01074011
                   Z  0.00327040 -0.00501282  0.00088288  0.00092905 -0.00204035
  4   C            X  0.00069424 -0.00118699  0.01632517  0.01571122  0.00353663
                   Y -0.00031808  0.00078447 -0.01147573 -0.01292191 -0.00268639
                   Z -0.00313508  0.00085371 -0.05395373 -0.04973955 -0.00925855
  5   C            X -0.00014228  0.00025043 -0.00219072 -0.00199322  0.00013945
                   Y -0.00279126  0.00059177 -0.02907465  0.00879836 -0.00123603
                   Z  0.00245447 -0.00110370  0.02817392 -0.00199492  0.00066736
  6   C            X -0.00147558  0.00083241 -0.01925923  0.03104894 -0.00972878
                   Y  0.00283750 -0.00056820  0.03332823 -0.05130794  0.01659926
                   Z  0.00066215  0.00083381  0.00581044 -0.01176740  0.00464989
  7   C            X  0.00067086  0.00005191  0.00362705 -0.00805609  0.00381460
                   Y -0.00002590  0.00010508 -0.00291635  0.00569527 -0.00242521
                   Z -0.00020698  0.00005456 -0.00616761  0.01358384 -0.00649624
  8   C            X -0.00008607  0.00002529 -0.00133565  0.00295237 -0.00128640
                   Y -0.00040372  0.00019619 -0.00224399  0.00566581 -0.00239226
                   Z  0.00031397 -0.00000675  0.00213296 -0.00510338  0.00225463
  9   C            X  0.00023012 -0.00022233 -0.00052930 -0.00076756 -0.00006409
                   Y -0.00008018 -0.00011636 -0.00082450 -0.00112286 -0.00014733
                   Z  0.00026148 -0.00017448  0.00081681  0.00128973  0.00003628
 10   O            X -0.00000546 -0.00002203  0.00001697  0.00005149  0.00001313
                   Y -0.00000782  0.00003727  0.00005178  0.00020435  0.00003995
                   Z -0.00001460 -0.00000665 -0.00005604 -0.00011364  0.00000773
 11   H            X -0.05467831 -0.02974256  0.00574374 -0.00111050 -0.00485753
                   Y  0.57696011  0.31046233 -0.03921621  0.00518572  0.02977373
                   Z  0.15686228  0.08399946 -0.01035457  0.00157252  0.00821887
 12   H            X -0.07084526 -0.03797953  0.00913209 -0.00249922 -0.00931504
                   Y -0.37659442 -0.20503101  0.03912712 -0.01414202 -0.05939200
                   Z  0.45268624  0.24800581 -0.04522998  0.01656127  0.06868831
 13   H            X -0.04671516  0.01260704 -0.06301830  0.03695797  0.29415941
                   Y -0.10583226  0.03378733 -0.14556432  0.08476124  0.67365940
                   Z  0.08350002 -0.02307458  0.11371643 -0.06602787 -0.52469407
 14   H            X -0.02431611  0.04453378  0.00709246 -0.00136798 -0.00716566
                   Y -0.24328288  0.46789407  0.05011029 -0.01105781 -0.06914834
                   Z  0.20591471 -0.39534420 -0.04130266  0.00938308  0.06160378
 15   H            X  0.20238670 -0.38243102 -0.02275826  0.00763112  0.01565580
                   Y -0.05182286  0.09777858  0.00687294 -0.00233838 -0.00563126
                   Z -0.22998456  0.43561716  0.02862752 -0.00995159 -0.02030283
 16   H            X -0.00873990  0.00255684 -0.17724681 -0.16442653 -0.03146779
                   Y  0.00841245 -0.00263963  0.14060098  0.13064644  0.02437435
                   Z  0.03733722 -0.01133993  0.61378356  0.56446489  0.10499990
 17   H            X  0.00203975 -0.00068127  0.01560036 -0.00237693  0.00066011
                   Y  0.03198779 -0.00999205  0.34526770 -0.06450500  0.01613387
                   Z -0.02977852  0.00943882 -0.32493960  0.05877958 -0.01507325
 18   H            X  0.02101933 -0.00755018  0.22929512 -0.35468818  0.11196917
                   Y -0.03143815  0.01106542 -0.37455477  0.58008025 -0.18463147
                   Z -0.00559406  0.00173676 -0.07535540  0.11866440 -0.03858489
 19   H            X -0.00375582  0.00046688 -0.04278115  0.09361647 -0.04360181
                   Y  0.00125788 -0.00045054  0.01983468 -0.04319645  0.02016483
                   Z  0.00693710 -0.00083688  0.07444561 -0.16160457  0.07542195
 20   H            X  0.00141919 -0.00051752  0.01060399 -0.02989910  0.01262041
                   Y  0.00463924 -0.00153007  0.02794222 -0.07549648  0.03185373
                   Z -0.00358243  0.00078172 -0.02001490  0.05428529 -0.02281883

 TRANS. SAYVETZ    X  0.00000078  0.00000025 -0.00000097  0.00000027  0.00000029
                   Y -0.00000093  0.00000113 -0.00000156  0.00000039  0.00000080
                   Z -0.00000174  0.00000016 -0.00000009  0.00000004  0.00000096
               TOTAL  0.00000212  0.00000116  0.00000184  0.00000048  0.00000128

   ROT. SAYVETZ    X -0.00001789 -0.00000236 -0.00000207  0.00001076 -0.00000458
                   Y  0.00000779 -0.00003401  0.00001522  0.00002509  0.00000576
                   Z  0.00002542 -0.00000222  0.00000812 -0.00002930  0.00000842
               TOTAL  0.00003204  0.00003416  0.00001737  0.00004005  0.00001118

                           56          57          58          59          60
       FREQUENCY:      3704.05     3712.80     3736.28     3777.40     3780.00  
        SYMMETRY:         A           A           A           A           A   
    REDUCED MASS:      1.09133     1.10022     1.10603     1.11642     1.11674
    IR INTENSITY:      0.55034     0.10233     0.06835     0.00319     0.01483

  1   C            X -0.00044394 -0.00029495  0.00001776 -0.00079689  0.00011825
                   Y  0.00071111  0.00177146 -0.00038987 -0.08435982  0.03081726
                   Z  0.00032095 -0.00088848  0.00016780  0.02628512 -0.00906582
  2   C            X  0.00206155 -0.00329549  0.00002595 -0.00133600  0.00189520
                   Y  0.00400404 -0.00648828  0.00005952 -0.00099845  0.00435373
                   Z -0.00310850  0.00475172 -0.00002188  0.00184967 -0.00251613
  3   C            X  0.00009031  0.00034399 -0.00002911  0.01399659  0.03909659
                   Y -0.00040232  0.00070926 -0.00022723  0.01095004  0.02905992
                   Z  0.00042500 -0.00168681  0.00024745 -0.02678430 -0.07373311
  4   C            X  0.00291612 -0.00984701  0.00090559  0.00007640 -0.00004753
                   Y -0.00282445  0.00971735 -0.00063716 -0.00009711 -0.00042339
                   Z -0.00842023  0.02515236 -0.00223756  0.00002910 -0.00079029
  5   C            X -0.00043293  0.00003879  0.00002446 -0.00006183 -0.00004977
                   Y  0.01195957 -0.05187792  0.00354036 -0.00024286  0.00054856
                   Z -0.00987838  0.05093504 -0.00347014  0.00037928 -0.00055341
  6   C            X  0.00711205  0.01777418 -0.00178591  0.00060552 -0.00060907
                   Y -0.01478874 -0.02952798  0.00521392 -0.00035685  0.00053226
                   Z -0.00086240 -0.01045276  0.00013558 -0.00023643  0.00014081
  7   C            X  0.03351441  0.00281833 -0.02343685  0.00011972 -0.00011903
                   Y -0.01471056  0.00056351  0.01812530 -0.00024976  0.00023457
                   Z -0.05734739 -0.00495841  0.03931767 -0.00066493  0.00041784
  8   C            X -0.01412774 -0.00319533 -0.01976433 -0.00010027  0.00010262
                   Y -0.02962421 -0.00850323 -0.06228662 -0.00005918 -0.00014691
                   Z  0.02496721  0.00577440  0.03627751 -0.00000146  0.00000823
  9   C            X  0.00074954  0.00039406  0.00117591  0.00001182  0.00014852
                   Y  0.00029832  0.00090270 -0.00057075  0.00004703 -0.00000153
                   Z -0.00132636 -0.00067186 -0.00200785  0.00008753  0.00013763
 10   O            X -0.00007860 -0.00001009 -0.00013866  0.00001251  0.00002580
                   Y -0.00013763 -0.00018899  0.00021823 -0.00000791 -0.00000969
                   Z  0.00013356  0.00002832  0.00023813 -0.00000682  0.00001258
 11   H            X  0.00093122  0.00128902 -0.00010236 -0.05629589  0.02037208
                   Y -0.00713858 -0.00995730  0.00242912  0.59926323 -0.21875115
                   Z -0.00193090 -0.00260460  0.00058335  0.16722976 -0.06066741
 12   H            X -0.00034476 -0.00102833 -0.00001400  0.07181819 -0.02612781
                   Y  0.00051924 -0.00971627  0.00260506  0.39342975 -0.14114374
                   Z -0.00094706  0.01095629 -0.00306587 -0.48118846  0.17264159
 13   H            X -0.02017444  0.03197558 -0.00004926  0.01148781 -0.02184564
                   Y -0.04597985  0.07289918 -0.00043415  0.01848279 -0.04896675
                   Z  0.03561083 -0.05669164  0.00027889 -0.01817817  0.03504531
 14   H            X  0.00064118 -0.00093590  0.00053264 -0.01453517 -0.04027137
                   Y  0.00397663 -0.00994628  0.00261818 -0.17031757 -0.46317389
                   Z -0.00375411  0.00951249 -0.00219020  0.14396518  0.39052428
 15   H            X -0.00008139 -0.00587798  0.00040568 -0.15207542 -0.41906360
                   Y -0.00013320  0.00178633 -0.00016471  0.04033657  0.11016236
                   Z  0.00000873  0.00728984 -0.00045120  0.17152457  0.47260404
 16   H            X -0.02764248  0.08315598 -0.00625572 -0.00049892 -0.00316000
                   Y  0.02156383 -0.06620657  0.00511682  0.00060822  0.00313073
                   Z  0.09453924 -0.28101457  0.02150103  0.00203959  0.01273925
 17   H            X -0.00423962  0.02245055 -0.00102473  0.00022088 -0.00028648
                   Y -0.12856908  0.57946208 -0.03703228  0.00320561 -0.00627003
                   Z  0.12056509 -0.54766476  0.03484082 -0.00317279  0.00576772
 18   H            X -0.09226730 -0.19486824  0.02676379 -0.00661819  0.00500406
                   Y  0.15357890  0.32042071 -0.04576322  0.00970715 -0.00785038
                   Z  0.02942725  0.06736721 -0.00866560  0.00180458 -0.00146492
 19   H            X -0.37986276 -0.03069563  0.24706620 -0.00336836  0.00232102
                   Y  0.16779974  0.01230259 -0.11115086  0.00173557 -0.00109394
                   Z  0.64997983  0.05216908 -0.42212266  0.00536936 -0.00356668
 20   H            X  0.14994514  0.03829775  0.24528263  0.00065179 -0.00000414
                   Y  0.37686615  0.09704377  0.62092007  0.00105592  0.00047084
                   Z -0.26800279 -0.06890086 -0.43901679 -0.00052021 -0.00038024

 TRANS. SAYVETZ    X  0.00000066  0.00000023 -0.00000033 -0.00000002  0.00000003
                   Y  0.00000045 -0.00000039  0.00000062  0.00000005  0.00000006
                   Z  0.00000047 -0.00000106  0.00000027  0.00000013 -0.00000004
               TOTAL  0.00000093  0.00000115  0.00000075  0.00000014  0.00000007

   ROT. SAYVETZ    X -0.00000690  0.00000009 -0.00000218 -0.00001604 -0.00000907
                   Y  0.00002129 -0.00000449 -0.00000721 -0.00000955 -0.00000590
                   Z -0.00001641 -0.00001410  0.00000592  0.00001914  0.00000812
               TOTAL  0.00002775  0.00001480  0.00000958  0.00002673  0.00001352

 REFERENCE ON SAYVETZ CONDITIONS - A. SAYVETZ, J.CHEM.PHYS., 7, 383-389(1939).

 NOTE - THE MODES J,K ARE ORTHONORMALIZED ACCORDING TO
 SUM ON I   M(I) * (X(I,J)*X(I,K) + Y(I,J)*Y(I,K) + Z(I,J)*Z(I,K)) = DELTA(J,K)

  MODE FREQ(CM**-1)  SYMMETRY  RED. MASS  IR INTENS.
     1    1060.369    A        9.324741    0.064321
     2       0.117    A        6.697992    0.000004
     3       0.078    A        6.615992    0.000015
     4       0.012    A        6.686806    0.000001
     5       1.405    A        4.828446    0.013584
     6       5.089    A        4.933263    0.003967
     7       6.185    A        4.657781    0.010917
     8     104.128    A        4.138025    0.029767
     9     203.671    A        3.551389    0.016632
    10     265.245    A        4.167100    0.030702
    11     381.412    A        5.277029    0.035430
    12     437.614    A        2.307228    0.075445
    13     465.618    A        3.414299    0.109586
    14     493.041    A        3.992144    0.077126
    15     506.441    A        4.789729    0.105014
    16     552.686    A        1.961637    0.248725
    17     575.844    A        2.545770    0.264898
    18     610.978    A        4.901285    0.016011
    19     677.216    A        5.711287    0.076617
    20     840.259    A        3.287584    0.033018
    21     851.561    A        4.185873    0.032904
    22     926.856    A        1.667090    2.621620
    23     938.109    A        1.761276    0.121118
    24     964.341    A        1.772473    0.902793
    25    1004.118    A        1.456941    0.150389
    26    1040.444    A        1.586998    0.061899
    27    1092.368    A        1.590178    0.228113
    28    1119.735    A        2.732675    0.001836
    29    1166.737    A        2.141522    0.057038
    30    1209.132    A        1.282447    0.003082
    31    1214.219    A        1.508128    0.090269
    32    1240.835    A        1.141085    0.082487
    33    1270.216    A        1.287366    0.408597
    34    1301.612    A        1.134612    0.247646
    35    1318.495    A        1.219222    0.093690
    36    1341.283    A        1.231507    0.051311
    37    1365.533    A        1.156041    0.010768
    38    1386.068    A        1.275969    0.048810
    39    1418.708    A        1.831277    0.674029
    40    1471.058    A        1.323603    0.088140
    41    1488.627    A        1.670949    0.001689
    42    1599.389    A        1.598207    0.164872
    43    1637.161    A        1.712707    0.166631
    44    1668.014    A        1.524681    0.029336
    45    1718.729    A        2.486359    0.476527
    46    1758.373    A        1.912221    0.035432
    47    1813.503    A        1.256194    0.224295
    48    1856.578    A        2.349656    0.040079
    49    2009.745    A        7.078365    0.062105
    50    2080.655    A       10.639163    1.818306
    51    3630.079    A        1.062665    0.098883
    52    3634.316    A        1.064622    0.072451
    53    3686.083    A        1.091014    0.193440
    54    3693.055    A        1.094113    0.045503
    55    3695.664    A        1.095901    0.141570
    56    3704.054    A        1.091326    0.550338
    57    3712.801    A        1.100222    0.102326
    58    3736.281    A        1.106027    0.068346
    59    3777.404    A        1.116417    0.003189
    60    3780.004    A        1.116742    0.014832

     -------------------------------
     THERMOCHEMISTRY AT T=  298.15 K
     -------------------------------

 USING IDEAL GAS, RIGID ROTOR, HARMONIC NORMAL MODE APPROXIMATIONS.
 P=  1.01325E+05 PASCAL.
 ALL FREQUENCIES ARE SCALED BY   1.00000
 THE MOMENTS OF INERTIA ARE (IN AMU*BOHR**2)
            852.46507          1312.31773          1651.70214
 THE ROTATIONAL SYMMETRY NUMBER IS  1.0
 THE ROTATIONAL CONSTANTS ARE (IN GHZ)
      2.11515     1.37397     1.09165
   1 IMAGINARY FREQUENCY VIBRATION(S) IS(ARE) EXCLUDED
     FROM THE FOLLOWING THERMOCHEMICAL ANALYSIS.
      8 -     60 VIBRATIONAL MODES ARE USED IN THERMOCHEMISTRY.
 THE HARMONIC ZERO POINT ENERGY IS (SCALED BY   1.000)
        0.192360 HARTREE/MOLECULE    42218.049356 CM**-1/MOLECULE 
      120.707581 KCAL/MOL              505.040521 KJ/MOL

               Q               LN Q
 ELEC.     1.00000E+00       0.000000
 TRANS.    6.10192E+07      17.926699
 ROT.      4.86592E+05      13.095182
 VIB.      1.44467E+01       2.670465
 TOT.      4.28943E+14      33.692346

              E         H         G         CV        CP        S
           KJ/MOL    KJ/MOL    KJ/MOL   J/MOL-K   J/MOL-K   J/MOL-K
 ELEC.      0.000     0.000     0.000     0.000     0.000     0.000
 TRANS.     3.718     6.197   -44.439    12.472    20.786   169.836
 ROT.       3.718     3.718   -32.462    12.472    12.472   121.350
 VIB.     516.151   516.151   498.421    93.000    93.000    59.469
 TOTAL    523.588   526.067   421.519   117.943   126.257   350.655
 VIB. THERMAL CORRECTION E(T)-E(0) = H(T)-H(0) =     11110.734 J/MOL

              E         H         G         CV        CP        S
         KCAL/MOL  KCAL/MOL  KCAL/MOL CAL/MOL-K CAL/MOL-K CAL/MOL-K
 ELEC.      0.000     0.000     0.000     0.000     0.000     0.000
 TRANS.     0.889     1.481   -10.621     2.981     4.968    40.592
 ROT.       0.889     0.889    -7.759     2.981     2.981    29.003
 VIB.     123.363   123.363   119.125    22.227    22.227    14.213
 TOTAL    125.141   125.733   100.746    28.189    30.176    83.809
 VIB. THERMAL CORRECTION E(T)-E(0) = H(T)-H(0) =      2655.529 CAL/MOL
 ......END OF NORMAL COORDINATE ANALYSIS......
 STEP CPU TIME =     0.02 TOTAL CPU TIME =         67.2 (      1.1 MIN)
 TOTAL WALL CLOCK TIME=         67.4 SECONDS, CPU UTILIZATION IS    99.79%
               580000  WORDS OF DYNAMIC MEMORY USED
 EXECUTION OF GAMESS TERMINATED NORMALLY Sat Nov 13 05:11:54 2021
 DDI: 263640 bytes (0.3 MB / 0 MWords) used by master data server.

 ----------------------------------------
 CPU timing information for all processes
 ========================================
 0: 66.620 + 0.637 = 67.258
 ----------------------------------------
 ddikick.x: exited gracefully.
----- accounting info -----
Files used on the master node chemcompute-node-0.novalocal were:
-rw-r--r--. 1 chemcomp chemcomp     1517 Nov 13 05:10 /scratch/305758/341635.F05
-rw-rw-r--. 1 chemcomp chemcomp 18001600 Nov 13 05:11 /scratch/305758/341635.F08
-rw-rw-r--. 1 chemcomp chemcomp 70451200 Nov 13 05:11 /scratch/305758/341635.F10
-rw-rw-r--. 1 chemcomp chemcomp   878880 Nov 13 05:11 /scratch/305758/341635.F18
Sat Nov 13 05:11:57 UTC 2021
0.137u 0.074s 1:11.43 0.2%	0+0k 8+216io 0pf+0w
Finishing Up...
Looking for IR data...
Looking for Raman data...
vibramans not found
Looking for thermodynamics data...
Looking for UV-Vis data...
305758
