----- GAMESS execution script 'rungms' -----
This job is running on host chemcompute-node-0.novalocal
under operating system Linux at Sat Nov 13 14:08:44 UTC 2021
SLURM has assigned the following compute nodes to this run:
chemcompute-node-0
Available scratch disk space (Kbyte units) at beginning of the job is
Filesystem     1K-blocks     Used Available Use% Mounted on
/dev/sda1       62903276 21458172  41445104  35% /
GAMESS temporary binary files will be written to /scratch/305952
GAMESS supplementary output files will be written to /data/slurm/341850
Copying input file 341850.inp to your run's scratch directory...
The generated host list is
chemcompute-node-0.novalocal

 Distributed Data Interface kickoff program.
 Initiating 1 compute processes on 1 nodes to run the following command:
 /data/gamess-2019R1-ddi/gamess.00.x 341850 

          ******************************************************
          *         GAMESS VERSION = 30 JUN 2019 (R1)          *
          *             FROM IOWA STATE UNIVERSITY             *
          * M.W.SCHMIDT, K.K.BALDRIDGE, J.A.BOATZ, S.T.ELBERT, *
          *   M.S.GORDON, J.H.JENSEN, S.KOSEKI, N.MATSUNAGA,   *
          *          K.A.NGUYEN, S.J.SU, T.L.WINDUS,           *
          *       TOGETHER WITH M.DUPUIS, J.A.MONTGOMERY       *
          *         J.COMPUT.CHEM.  14, 1347-1363(1993)        *
          **************** 64 BIT LINUX VERSION ****************

  SINCE 1993, STUDENTS AND POSTDOCS WORKING AT IOWA STATE UNIVERSITY
  AND ALSO IN THEIR VARIOUS JOBS AFTER LEAVING ISU HAVE MADE IMPORTANT
  CONTRIBUTIONS TO THE CODE:
     IVANA ADAMOVIC, CHRISTINE AIKENS, YURI ALEXEEV, POOJA ARORA,
     ANDREY ASADCHEV, ROB BELL, PRADIPTA BANDYOPADHYAY, JONATHAN BENTZ,
     COLLEEN BERTONI, BRETT BODE, KURT BRORSEN, CALEB CARLIN, GALINA CHABAN,
     WEI CHEN, CHEOL HO CHOI, PAUL DAY, ALBERT DEFUSCO, NUWAN DESILVA,
     TIM DUDLEY, DMITRI FEDOROV, ALEX FINDLATER, GRAHAM FLETCHER, 
     MARK FREITAG, KURT GLAESEMANN, ANASTASIA GUNINA,
     DAN KEMP, GRANT MERRILL, NORIYUKI MINEZAWA, JONATHAN MULLIN,
     TAKESHI NAGATA, SEAN NEDD, HEATHER NETZLOFF, BOSILJKA NJEGIC, RYAN OLSON,
     MIKE PAK, BUU PHAM,
     SPENCER PRUITT, LUKE ROSKOP, JIM SHOEMAKER, LYUDMILA SLIPCHENKO,
     TONY SMITH, SAROM SOK LEANG, JIE SONG, TETSUYA TAKETSUGU, SIMON WEBB,
     PENG XU, SOOHAENG YOO, FEDERICO ZAHARIEV

  ADDITIONAL CODE HAS BEEN PROVIDED BY COLLABORATORS IN OTHER GROUPS:
     IOWA STATE UNIVERSITY:
          JOE IVANIC, AARON WEST, LAIMUTIS BYTAUTAS, KLAUS RUEDENBERG
     UNIVERSITY OF TOKYO: KIMIHIKO HIRAO, TAKAHITO NAKAJIMA,
          TAKAO TSUNEDA, MUNEAKI KAMIYA, SUSUMU YANAGISAWA,
          KIYOSHI YAGI, MAHITO CHIBA, SEIKEN TOKURA, NAOAKI KAWAKAMI
     UNIVERSITY OF AARHUS: FRANK JENSEN
     UNIVERSITY OF IOWA: VISVALDAS KAIRYS, HUI LI
     NATIONAL INST. OF STANDARDS AND TECHNOLOGY: WALT STEVENS, DAVID GARMER
     UNIVERSITY OF PISA: BENEDETTA MENNUCCI, JACOPO TOMASI
     UNIVERSITY OF MEMPHIS: HENRY KURTZ, PRAKASHAN KORAMBATH
     UNIVERSITY OF ALBERTA: TOBY ZENG, MARIUSZ KLOBUKOWSKI
     UNIVERSITY OF NEW ENGLAND: MARK SPACKMAN
     MIE UNIVERSITY: HIROAKI UMEDA
     NAT. INST. OF ADVANCED INDUSTRIAL SCIENCE AND TECHNOLOGY: KAZUO KITAURA
     MICHIGAN STATE UNIVERSITY:
          KAROL KOWALSKI, MARTA WLOCH, JEFFREY GOUR, JESSE LUTZ,
          WEI LI, JUN SHEN, J. EMILIANO DEUSTUA, PIOTR PIECUCH
     UNIVERSITY OF MINNESOTA:
          YINAN SHU
     UNIVERSITY OF SILESIA: MONIKA MUSIAL, STANISLAW KUCHARSKI
     FACULTES UNIVERSITAIRES NOTRE-DAME DE LA PAIX:
          OLIVIER QUINET, BENOIT CHAMPAGNE
     UNIVERSITY OF CALIFORNIA - SANTA BARBARA: BERNARD KIRTMAN
     INSTITUTE FOR MOLECULAR SCIENCE:
          KAZUYA ISHIMURA, MICHIO KATOUDA, AND SHIGERU NAGASE
     UNIVERSITY OF NOTRE DAME: ANNA POMOGAEVA, DAN CHIPMAN
     KYUSHU UNIVERSITY:
          HARUYUKI NAKANO,
          FENG LONG GU, JACEK KORCHOWIEC, MARCIN MAKOWSKI, AND YURIKO AOKI,
          HIROTOSHI MORI AND EISAKU MIYOSHI
     PENNSYLVANIA STATE UNIVERSITY:
          TZVETELIN IORDANOV, CHET SWALINA, JONATHAN SKONE,
          SHARON HAMMES-SCHIFFER
     WASEDA UNIVERSITY:
          MASATO KOBAYASHI, TOMOKO AKAMA, TSUGUKI TOUMA,
          TAKESHI YOSHIKAWA, YASUHIRO IKABATA, JUNJI SEINO,
          YUYA NAKAJIMA, HIROMI NAKAI
     NANJING UNIVERSITY: SHUHUA LI
     UNIVERSITY OF NEBRASKA:
          PEIFENG SU, DEJUN SI, NANDUN THELLAMUREGE, YALI WANG, HUI LI
     UNIVERSITY OF ZURICH: ROBERTO PEVERATI, KIM BALDRIDGE
     N. COPERNICUS UNIVERSITY AND JACKSON STATE UNIVERSITY:
          MARIA BARYSZ
     UNIVERSITY OF COPENHAGEN: Jimmy Kromann, CASPER STEINMANN
     TOKYO INSTITUTE OF TECHNOLOGY: HIROYA NAKATA
     NAGOYA UNIVERSITY: YOSHIO NISHIMOTO, STEPHAN IRLE
     MOSCOW STATE UNIVERSITY: VLADIMIR MIRONOV
     A.N.NESMEYANOV INSTITUTE OF ORGANOELEMENT COMPOUNDS OF RUSSIAN ACADEMY OF SCIENCES:
          IGOR S. GERASIMOV

 EXECUTION OF GAMESS BEGUN Sat Nov 13 14:08:44 2021

            ECHO OF THE FIRST FEW INPUT CARDS -
 INPUT CARD>!File created by the GAMESS Input Deck Generator Plugin for Avogadro            
 INPUT CARD> $BASIS GBASIS=STO NGAUSS=3 $END                                                
 INPUT CARD> $CONTRL SCFTYP=RHF RUNTYP=IRC $END                                             
 INPUT CARD> $STATPT HESS=READ ihrep=5 $END                                                 
 INPUT CARD> $irc npoint=100 saddle=.t. tsengy=.t. forwrd=.f. opttol=0.0005 stride=0.1 $end 
 INPUT CARD>                                                                                
 INPUT CARD> $DATA                                                                          
 INPUT CARD>Title                                                                           
 INPUT CARD>C1                                                                              
 INPUT CARD>C     6.0    -4.38398409     0.41325399    -0.78149301                          
 INPUT CARD>C     6.0    -5.38088799     0.72404200     0.16004600                          
 INPUT CARD>C     6.0    -5.42279005     2.01979804     0.70109099                          
 INPUT CARD>C     6.0    -3.72506094     2.32850289     1.57036996                          
 INPUT CARD>C     6.0    -2.95976901     1.16690004     1.37017000                          
 INPUT CARD>C     6.0    -2.68230700     0.83436501     0.03057900                          
 INPUT CARD>C     6.0    -2.25101209     2.00248599    -0.82817900                          
 INPUT CARD>C     6.0    -2.50645995     3.24837494    -0.48740000                          
 INPUT CARD>C     6.0    -3.26606488     3.56789804     0.78047103                          
 INPUT CARD>O     8.0    -3.50149298     4.70952797     1.15031302                          
 INPUT CARD>H     1.0    -4.29324722    -0.62701398    -1.07775795                          
 INPUT CARD>H     1.0    -4.27533102     1.08686197    -1.62348294                          
 INPUT CARD>H     1.0    -5.72930479    -0.08401300     0.79298103                          
 INPUT CARD>H     1.0    -5.37018490     2.84326601    -0.00194200                          
 INPUT CARD>H     1.0    -6.13870001     2.20735598     1.49455297                          
 INPUT CARD>H     1.0    -4.01099920     2.56746888     2.59105206                          
 INPUT CARD>H     1.0    -2.99533510     0.37775901     2.11121798                          
 INPUT CARD>H     1.0    -2.11577702    -0.07443100    -0.15100101                          
 INPUT CARD>H     1.0    -1.71733797     1.76736295    -1.74267995                          
 INPUT CARD>H     1.0    -2.17411900     4.08924818    -1.08177400                          
 INPUT CARD> $END                                                                           
 INPUT CARD>                                                                                
 INPUT CARD> $HESS                                                                          
 INPUT CARD>ENERGY IS     -416.0920673035 E(NUC) IS      508.0224031169                     
 INPUT CARD> 1  1 1.80755612E-01-9.39591703E-02-2.77502851E-01-1.60870554E-01-6.84372642E-02
 INPUT CARD> 1  2 9.94206346E-02 1.04683604E-01 1.26326200E-01 9.56488464E-02-1.55789283E-01
 INPUT CARD> 1  3 5.79081353E-02-3.78324987E-02 5.09943631E-02-1.16100075E-01-1.40709032E-01
 INPUT CARD> 1  4 1.24065966E-01 8.81320451E-02 1.81857476E-01-3.17654593E-02-3.06545872E-02
 INPUT CARD> 1  5-2.60660261E-03-7.31354932E-03 1.00923488E-02 7.58179787E-04 1.17453221E-02
 INPUT CARD> 1  6 4.23409802E-04 7.26961594E-03-2.23611339E-03 3.12108839E-03-2.07327053E-03
 INPUT CARD> 1  7-5.13132162E-02 3.90582652E-02 2.80328242E-02-2.80725040E-02-1.07169568E-02
 INPUT CARD> 1  8 5.82516118E-02-3.21085554E-03 8.52913213E-03 3.83729139E-03-2.06484728E-02
 INPUT CARD> 1  9-4.51796990E-03-7.71527418E-03-1.22344893E-03-1.08843656E-03-1.72045405E-03
 INPUT CARD> 1 10 7.58009447E-03 2.03500364E-03 1.34881876E-03 1.73943272E-04-6.69708576E-04
 INPUT CARD> 1 11 2.03497609E-03-2.21619043E-02-1.00018572E-02-1.03804842E-02 1.46973151E-03
 INPUT CARD> 1 12 3.35569284E-04 4.63417689E-04 3.13467026E-03 1.83630245E-04 1.61782274E-03
 INPUT CARD> 2  1-9.39591703E-02 8.95592338E-01-1.84681643E-02 6.80905349E-02-1.73086945E-01
 INPUT CARD> 2  2-6.05689445E-02 3.73217487E-02-1.95299591E-03-3.31403086E-02-5.80452411E-03
 INPUT CARD> 2  3 1.64493704E-03-4.88201122E-03 3.83144564E-03-9.34700125E-03-1.09767264E-02
 INPUT CARD> 2  4 1.32581133E-02-3.57718459E-02 1.44822246E-02-1.54472521E-02-9.23634430E-03
 INPUT CARD> 2  5-4.46199652E-03-1.22852110E-03 3.10960624E-04 1.64146247E-04-6.67481719E-04
    1000000 WORDS OF MEMORY AVAILABLE

     BASIS OPTIONS
     -------------
     GBASIS=STO          IGAUSS=       3      POLAR=NONE    
     NDFUNC=       0     NFFUNC=       0     DIFFSP=       F
     NPFUNC=       0      DIFFS=       F     BASNAM=        


     RUN TITLE
     ---------
 Title                                                                           

 THE POINT GROUP OF THE MOLECULE IS C1      
 THE ORDER OF THE PRINCIPAL AXIS IS     0

 ATOM      ATOMIC                      COORDINATES (BOHR)
           CHARGE         X                   Y                   Z
 C           6.0    -8.2845286646        0.7809368044       -1.4768076502
 C           6.0   -10.1684038717        1.3682409836        0.3024430854
 C           6.0   -10.2475872834        3.8168648461        1.3248698636
 C           6.0    -7.0393444642        4.4002324237        2.9675689237
 C           6.0    -5.5931524159        2.2051213307        2.5892458566
 C           6.0    -5.0688252449        1.5767212426        0.0577859310
 C           6.0    -4.2537960451        3.7841498154       -1.5650313788
 C           6.0    -4.7365225047        6.1385385420       -0.9210524464
 C           6.0    -6.1719676813        6.7423496477        1.4748763881
 O           8.0    -6.6168622801        8.8997173948        2.1737764079
 H           1.0    -8.1130608433       -1.1848846127       -2.0366672066
 H           1.0    -8.0792041346        2.0538713098       -3.0679379023
 H           1.0   -10.8268161532       -0.1587615494        1.4985168602
 H           1.0   -10.1481779644        5.3729936691       -0.0036698479
 H           1.0   -11.6004609397        4.1712979596        2.8242955874
 H           1.0    -7.5796894250        4.8518126652        4.8963784133
 H           1.0    -5.6603625804        0.7138610183        3.9896234826
 H           1.0    -3.9982388189       -0.1406541950       -0.2853505328
 H           1.0    -3.2452981916        3.3398316964       -3.2931875898
 H           1.0    -4.1084891747        7.7275585560       -2.0442564406

          INTERNUCLEAR DISTANCES (ANGS.)
          ------------------------------

                1 C          2 C          3 C          4 C          5 C     

   1 C       0.0000000    1.4060236 *  2.4203630 *  3.1038069    2.6881266 *
   2 C       1.4060236 *  0.0000000    1.4048022 *  2.7027896 *  2.7426885 *
   3 C       2.4203630 *  1.4048022 *  0.0000000    1.9321565 *  2.6910173 *
   4 C       3.1038069    2.7027896 *  1.9321565 *  0.0000000    1.4053729 *
   5 C       2.6881266 *  2.7426885 *  2.6910173 *  1.4053729 *  0.0000000  
   6 C       1.9319680 *  2.7039364 *  3.0602427    2.3855272 *  1.4078596 *
   7 C       2.6603397 *  3.5223757    3.5212415    2.8341038 *  2.4562733 *
   8 C       3.4131362    3.8799201    3.3803688    2.5623369 *  2.8264099 *
   9 C       3.6934068    3.5979051    2.6560080 *  1.5397136 *  2.4912554 *
  10 O       4.7925604    4.5162875    3.3358402    2.4281085 *  3.5905452  
  11 H       1.0854324 *  2.1308386 *  3.3831619    4.0088024    3.3149122  
  12 H       1.0837436 *  2.1295234 *  2.7551181 *  3.4706146    3.2709429  
  13 H       2.1298194 *  1.0839529 *  2.1280075 *  3.2313403    3.0932603  
  14 H       2.7359185 *  2.1254329 *  1.0840305 *  2.3331478 *  3.2408331  
  15 H       3.3879515    2.1343402 *  1.0850286 *  2.4178665 *  3.3471812  
  16 H       4.0191815    3.3443398    2.4217864 *  1.0865806 *  2.1347672 *
  17 H       3.2089535    3.1012653    3.2522743    2.1518406 *  1.0831254 *
  18 H       2.4041880 *  3.3756865    4.0060194    3.3655615    2.1370977 *
  19 H       3.1414158    4.2579905    4.4459099    3.9143491    3.4050001  
  20 H       4.2996053    4.8114548    4.2444193    3.5411174    3.8947906  

                6 C          7 C          8 C          9 C         10 O     

   1 C       1.9319680 *  2.6603397 *  3.4131362    3.6934068    4.7925604  
   2 C       2.7039364 *  3.5223757    3.8799201    3.5979051    4.5162875  
   3 C       3.0602427    3.5212415    3.3803688    2.6560080 *  3.3358402  
   4 C       2.3855272 *  2.8341038 *  2.5623369 *  1.5397136 *  2.4281085 *
   5 C       1.4078596 *  2.4562733 *  2.8264099 *  2.4912554 *  3.5905452  
   6 C       0.0000000    1.5126094 *  2.4752108 *  2.8940135 *  4.1160367  
   7 C       1.5126094 *  0.0000000    1.3166713 *  2.4634533 *  3.5785765  
   8 C       2.4752108 *  1.3166713 *  0.0000000    1.5121480 *  2.4098056 *
   9 C       2.8940135 *  2.4634533 *  1.5121480 *  0.0000000    1.2229180 *
  10 O       4.1160367    3.5785765    2.4098056 *  1.2229180 *  0.0000000  
  11 H       2.4411407 *  3.3387549    4.3081052    4.7016386    5.8369388  
  12 H       2.3102816 *  2.3598184 *  3.0152492    3.5990489    4.6277941  
  13 H       3.2724411    4.3680840    4.8094609    4.4050155    5.2980059  
  14 H       3.3558052    3.3344891    2.9326956 *  2.3589368 *  2.8814293 *
  15 H       3.9968709    4.5333401    4.2667348    3.2577631    3.6516060  
  16 H       3.3652777    3.8868884    3.4934422    2.1986335 *  2.6313006 *
  17 H       2.1530291 *  3.4400304    3.9028515    3.4671558    4.4658433  
  18 H       1.0862033 *  2.1887080 *  3.3625640    3.9315853    5.1478044  
  19 H       2.2239824 *  1.0846211 *  2.0956712 *  3.4650790    4.4954368  
  20 H       3.4770460    2.1035207 *  1.0820345 *  2.2208351 *  2.6699965 *

               11 H         12 H         13 H         14 H         15 H     

   1 C       1.0854324 *  1.0837436 *  2.1298194 *  2.7359185 *  3.3879515  
   2 C       2.1308386 *  2.1295234 *  1.0839529 *  2.1254329 *  2.1343402 *
   3 C       3.3831619    2.7551181 *  2.1280075 *  1.0840305 *  1.0850286 *
   4 C       4.0088024    3.4706146    3.2313403    2.3331478 *  2.4178665 *
   5 C       3.3149122    3.2709429    3.0932603    3.2408331    3.3471812  
   6 C       2.4411407 *  2.3102816 *  3.2724411    3.3558052    3.9968709  
   7 C       3.3387549    2.3598184 *  4.3680840    3.3344891    4.5333401  
   8 C       4.3081052    3.0152492    4.8094609    2.9326956 *  4.2667348  
   9 C       4.7016386    3.5990489    4.4050155    2.3589368 *  3.2577631  
  10 O       5.8369388    4.6277941    5.2980059    2.8814293 *  3.6516060  
  11 H       0.0000000    1.7987517 *  2.4200776 *  3.7894614    4.2492508  
  12 H       1.7987517 *  0.0000000    3.0535694    2.6292689 *  3.8012891  
  13 H       2.4200776 *  3.0535694    0.0000000    3.0544774    2.4310861 *
  14 H       3.7894614    2.6292689 *  3.0544774    0.0000000    1.7984700 *
  15 H       4.2492508    3.8012891    2.4310861 *  1.7984700 *  0.0000000  
  16 H       4.8728381    4.4748602    3.6353803    2.9405897 *  2.4205583 *
  17 H       3.5866018    4.0111354    3.0701095    4.0229444    3.6889624  
  18 H       2.4301446 *  2.8601535 *  3.7348061    4.3733677    4.9090029  
  19 H       3.5791718    2.6496449 *  5.0944133    4.1870069    5.4974279  
  20 H       5.1704786    3.7044383    5.7939763    3.5962961    5.0888979  

               16 H         17 H         18 H         19 H         20 H     

   1 C       4.0191815    3.2089535    2.4041880 *  3.1414158    4.2996053  
   2 C       3.3443398    3.1012653    3.3756865    4.2579905    4.8114548  
   3 C       2.4217864 *  3.2522743    4.0060194    4.4459099    4.2444193  
   4 C       1.0865806 *  2.1518406 *  3.3655615    3.9143491    3.5411174  
   5 C       2.1347672 *  1.0831254 *  2.1370977 *  3.4050001    3.8947906  
   6 C       3.3652777    2.1530291 *  1.0862033 *  2.2239824 *  3.4770460  
   7 C       3.8868884    3.4400304    2.1887080 *  1.0846211 *  2.1035207 *
   8 C       3.4934422    3.9028515    3.3625640    2.0956712 *  1.0820345 *
   9 C       2.1986335 *  3.4671558    3.9315853    3.4650790    2.2208351 *
  10 O       2.6313006 *  4.4658433    5.1478044    4.4954368    2.6699965 *
  11 H       4.8728381    3.5866018    2.4301446 *  3.5791718    5.1704786  
  12 H       4.4748602    4.0111354    2.8601535 *  2.6496449 *  3.7044383  
  13 H       3.6353803    3.0701095    3.7348061    5.0944133    5.7939763  
  14 H       2.9405897 *  4.0229444    4.3733677    4.1870069    3.5962961  
  15 H       2.4205583 *  3.6889624    4.9090029    5.4974279    5.0888979  
  16 H       0.0000000    2.4610249 *  4.2532760    4.9681269    4.3794511  
  17 H       2.4610249 *  0.0000000    2.4689538 *  4.2914805    4.9643474  
  18 H       4.2532760    2.4689538 *  0.0000000    2.4666578 *  4.2668450  
  19 H       4.9681269    4.2914805    2.4666578 *  0.0000000    2.4569486 *
  20 H       4.3794511    4.9643474    4.2668450    2.4569486 *  0.0000000  

  * ... LESS THAN  3.000


     ATOMIC BASIS SET
     ----------------
 THE CONTRACTED PRIMITIVE FUNCTIONS HAVE BEEN UNNORMALIZED
 THE CONTRACTED BASIS FUNCTIONS ARE NOW NORMALIZED TO UNITY

  SHELL TYPE  PRIMITIVE        EXPONENT          CONTRACTION COEFFICIENT(S)

 C         

      1   S       1            71.6168373    0.154328967295
      1   S       2            13.0450963    0.535328142282
      1   S       3             3.5305122    0.444634542185

      2   L       4             2.9412494   -0.099967229187    0.155916274999
      2   L       5             0.6834831    0.399512826089    0.607683718598
      2   L       6             0.2222899    0.700115468880    0.391957393099

 C         

      3   S       7            71.6168373    0.154328967295
      3   S       8            13.0450963    0.535328142282
      3   S       9             3.5305122    0.444634542185

      4   L      10             2.9412494   -0.099967229187    0.155916274999
      4   L      11             0.6834831    0.399512826089    0.607683718598
      4   L      12             0.2222899    0.700115468880    0.391957393099

 C         

      5   S      13            71.6168373    0.154328967295
      5   S      14            13.0450963    0.535328142282
      5   S      15             3.5305122    0.444634542185

      6   L      16             2.9412494   -0.099967229187    0.155916274999
      6   L      17             0.6834831    0.399512826089    0.607683718598
      6   L      18             0.2222899    0.700115468880    0.391957393099

 C         

      7   S      19            71.6168373    0.154328967295
      7   S      20            13.0450963    0.535328142282
      7   S      21             3.5305122    0.444634542185

      8   L      22             2.9412494   -0.099967229187    0.155916274999
      8   L      23             0.6834831    0.399512826089    0.607683718598
      8   L      24             0.2222899    0.700115468880    0.391957393099

 C         

      9   S      25            71.6168373    0.154328967295
      9   S      26            13.0450963    0.535328142282
      9   S      27             3.5305122    0.444634542185

     10   L      28             2.9412494   -0.099967229187    0.155916274999
     10   L      29             0.6834831    0.399512826089    0.607683718598
     10   L      30             0.2222899    0.700115468880    0.391957393099

 C         

     11   S      31            71.6168373    0.154328967295
     11   S      32            13.0450963    0.535328142282
     11   S      33             3.5305122    0.444634542185

     12   L      34             2.9412494   -0.099967229187    0.155916274999
     12   L      35             0.6834831    0.399512826089    0.607683718598
     12   L      36             0.2222899    0.700115468880    0.391957393099

 C         

     13   S      37            71.6168373    0.154328967295
     13   S      38            13.0450963    0.535328142282
     13   S      39             3.5305122    0.444634542185

     14   L      40             2.9412494   -0.099967229187    0.155916274999
     14   L      41             0.6834831    0.399512826089    0.607683718598
     14   L      42             0.2222899    0.700115468880    0.391957393099

 C         

     15   S      43            71.6168373    0.154328967295
     15   S      44            13.0450963    0.535328142282
     15   S      45             3.5305122    0.444634542185

     16   L      46             2.9412494   -0.099967229187    0.155916274999
     16   L      47             0.6834831    0.399512826089    0.607683718598
     16   L      48             0.2222899    0.700115468880    0.391957393099

 C         

     17   S      49            71.6168373    0.154328967295
     17   S      50            13.0450963    0.535328142282
     17   S      51             3.5305122    0.444634542185

     18   L      52             2.9412494   -0.099967229187    0.155916274999
     18   L      53             0.6834831    0.399512826089    0.607683718598
     18   L      54             0.2222899    0.700115468880    0.391957393099

 O         

     19   S      55           130.7093214    0.154328967295
     19   S      56            23.8088661    0.535328142282
     19   S      57             6.4436083    0.444634542185

     20   L      58             5.0331513   -0.099967229187    0.155916274999
     20   L      59             1.1695961    0.399512826089    0.607683718598
     20   L      60             0.3803890    0.700115468880    0.391957393099

 H         

     21   S      61             3.4252509    0.154328967295
     21   S      62             0.6239137    0.535328142282
     21   S      63             0.1688554    0.444634542185

 H         

     22   S      64             3.4252509    0.154328967295
     22   S      65             0.6239137    0.535328142282
     22   S      66             0.1688554    0.444634542185

 H         

     23   S      67             3.4252509    0.154328967295
     23   S      68             0.6239137    0.535328142282
     23   S      69             0.1688554    0.444634542185

 H         

     24   S      70             3.4252509    0.154328967295
     24   S      71             0.6239137    0.535328142282
     24   S      72             0.1688554    0.444634542185

 H         

     25   S      73             3.4252509    0.154328967295
     25   S      74             0.6239137    0.535328142282
     25   S      75             0.1688554    0.444634542185

 H         

     26   S      76             3.4252509    0.154328967295
     26   S      77             0.6239137    0.535328142282
     26   S      78             0.1688554    0.444634542185

 H         

     27   S      79             3.4252509    0.154328967295
     27   S      80             0.6239137    0.535328142282
     27   S      81             0.1688554    0.444634542185

 H         

     28   S      82             3.4252509    0.154328967295
     28   S      83             0.6239137    0.535328142282
     28   S      84             0.1688554    0.444634542185

 H         

     29   S      85             3.4252509    0.154328967295
     29   S      86             0.6239137    0.535328142282
     29   S      87             0.1688554    0.444634542185

 H         

     30   S      88             3.4252509    0.154328967295
     30   S      89             0.6239137    0.535328142282
     30   S      90             0.1688554    0.444634542185

 TOTAL NUMBER OF BASIS SET SHELLS             =   30
 NUMBER OF CARTESIAN GAUSSIAN BASIS FUNCTIONS =   60
 NUMBER OF ELECTRONS                          =   72
 CHARGE OF MOLECULE                           =    0
 SPIN MULTIPLICITY                            =    1
 NUMBER OF OCCUPIED ORBITALS (ALPHA)          =   36
 NUMBER OF OCCUPIED ORBITALS (BETA )          =   36
 TOTAL NUMBER OF ATOMS                        =   20
 THE NUCLEAR REPULSION ENERGY IS      511.4291510558

     $CONTRL OPTIONS
     ---------------
 SCFTYP=RHF          RUNTYP=IRC          EXETYP=RUN     
 MPLEVL=       0     CITYP =NONE         CCTYP =NONE         VBTYP =NONE    
 DFTTYP=NONE         TDDFT =NONE    
 MULT  =       1     ICHARG=       0     NZVAR =       0     COORD =UNIQUE  
 PP    =NONE         RELWFN=NONE         LOCAL =NONE         NUMGRD=       F
 ISPHER=      -1     NOSYM =       0     MAXIT =      30     UNITS =ANGS    
 PLTORB=       F     MOLPLT=       F     AIMPAC=       F     FRIEND=        
 NPRINT=       7     IREST =       0     GEOM  =INPUT   
 NORMF =       0     NORMP =       0     ITOL  =      20     ICUT  =       9
 INTTYP=BEST         GRDTYP=BEST         QMTTOL= 1.0E-06

     $SYSTEM OPTIONS
     ---------------
  REPLICATED MEMORY=     1000000 WORDS (ON EVERY NODE).
 DISTRIBUTED MEMDDI=           0 MILLION WORDS IN AGGREGATE,
 MEMDDI DISTRIBUTED OVER   1 PROCESSORS IS           0 WORDS/PROCESSOR.
 TOTAL MEMORY REQUESTED ON EACH PROCESSOR=     1000000 WORDS.
 TIMLIM=      525600.00 MINUTES, OR     365.0 DAYS.
 PARALL= F  BALTYP=  DLB     KDIAG=    0  COREFL= F
 MXSEQ2=     300 MXSEQ3=     150  mem10=         0

          ----------------
          PROPERTIES INPUT
          ----------------

     MOMENTS            FIELD           POTENTIAL          DENSITY
 IEMOM =       1   IEFLD =       0   IEPOT =       0   IEDEN =       0
 WHERE =COMASS     WHERE =NUCLEI     WHERE =NUCLEI     WHERE =NUCLEI  
 OUTPUT=BOTH       OUTPUT=BOTH       OUTPUT=BOTH       OUTPUT=BOTH    
 IEMINT=       0   IEFINT=       0                     IEDINT=       0
                                                       MORB  =       0
          EXTRAPOLATION IN EFFECT
          SOSCF IN EFFECT
 ORBITAL PRINTING OPTION: NPREO=     1    60     2     1

     -------------------------------
     INTEGRAL TRANSFORMATION OPTIONS
     -------------------------------
     NWORD  =            0
     CUTOFF = 1.0E-09     MPTRAN =       0
     DIRTRF =       F     AOINTS =DUP     

          ----------------------
          INTEGRAL INPUT OPTIONS
          ----------------------
 NOPK  =       1 NORDER=       0 SCHWRZ=       T

     ------------------------------------------
     THE POINT GROUP IS C1 , NAXIS= 0, ORDER= 1
     ------------------------------------------

     DIMENSIONS OF THE SYMMETRY SUBSPACES ARE
 A   =   60

 ..... DONE SETTING UP THE RUN .....
 STEP CPU TIME =     0.04 TOTAL CPU TIME =          0.0 (      0.0 MIN)
 TOTAL WALL CLOCK TIME=          0.1 SECONDS, CPU UTILIZATION IS    66.67%

          -----------------------------
          INTRINSIC REACTION COORDINATE
          -----------------------------
          PACE   =GS2     
          STRIDE = 0.10000 BOHR*SQRT(AMU)
          NPOINT =     100
          NEXTPT =       0
          STOTAL =  0.0000 BOHR*SQRT(AMU)
          SAB    =  0.0000 BOHR*SQRT(AMU)
          NPRT   =       0
          NPUN   =       0

          SADDLE =       T
          TSENGY =       T
          FORWRD =       F
          EVIB   = 0.00050 HARTREE
          FREQ   =     0.0 CM**-1

          STABLZ =       F
          ELBOW  =  175.00 DEGREES
          DELTA  = 0.02500 BOHR

          READQB =       F
          EB     =        0.0000000000 HARTREES
          GBNORM =        0.0000000000 HARTREES/SQRT(AMU)-BOHR

          GCUT   = 0.0000500 HARTREES/SQRT(AMU)-BOHR
          RCUT   = 0.0005000 BOHR
          ACUT   =    5.00 DEGREES
          MXOPT  =      20
          IHUPD  =       2

 ATOMIC MASSES USED (IN AMU) ARE
     C             12.0000
     C             12.0000
     C             12.0000
     C             12.0000
     C             12.0000
     C             12.0000
     C             12.0000
     C             12.0000
     C             12.0000
     O             15.9949
     H              1.0078
     H              1.0078
     H              1.0078
     H              1.0078
     H              1.0078
     H              1.0078
     H              1.0078
     H              1.0078
     H              1.0078
     H              1.0078

 JUMP AWAY FROM SADDLE POINT WILL BE FOUND FROM THE INPUT HESSIAN MATRIX

 COMPUTING WAVEFUNCTION AT TRANSITION STATE...

          ********************
          1 ELECTRON INTEGRALS
          ********************
 ...... END OF ONE-ELECTRON INTEGRALS ......
 STEP CPU TIME =     0.02 TOTAL CPU TIME =          0.1 (      0.0 MIN)
 TOTAL WALL CLOCK TIME=          0.1 SECONDS, CPU UTILIZATION IS    60.00%

          -------------
          GUESS OPTIONS
          -------------
          GUESS =HUCKEL            NORB  =       0          NORDER=       0
          MIX   =       F          PRTMO =       F          PUNMO =       F
          TOLZ  = 1.0E-08          TOLE  = 1.0E-05
          SYMDEN=       F          PURIFY=       F

 INITIAL GUESS ORBITALS GENERATED BY HUCKEL   ROUTINE.
 HUCKEL GUESS REQUIRES     53820 WORDS.

 SYMMETRIES FOR INITIAL GUESS ORBITALS FOLLOW.   BOTH SET(S).
    36 ORBITALS ARE OCCUPIED (   10 CORE ORBITALS).
    11=A       12=A       13=A       14=A       15=A       16=A       17=A   
    18=A       19=A       20=A       21=A       22=A       23=A       24=A   
    25=A       26=A       27=A       28=A       29=A       30=A       31=A   
    32=A       33=A       34=A       35=A       36=A       37=A       38=A   
    39=A       40=A       41=A       42=A       43=A       44=A       45=A   
    46=A   
 ...... END OF INITIAL ORBITAL SELECTION ......
 STEP CPU TIME =     0.02 TOTAL CPU TIME =          0.1 (      0.0 MIN)
 TOTAL WALL CLOCK TIME=          0.1 SECONDS, CPU UTILIZATION IS    72.73%

                    ----------------------
                    AO INTEGRAL TECHNOLOGY
                    ----------------------
     S,P,L SHELL ROTATED AXIS INTEGRALS, REPROGRAMMED BY
        KAZUYA ISHIMURA (IMS) AND JOSE SIERRA (SYNSTAR).
     S,P,D,L SHELL ROTATED AXIS INTEGRALS PROGRAMMED BY
        KAZUYA ISHIMURA (INSTITUTE FOR MOLECULAR SCIENCE).
     S,P,D,F,G SHELL TO TOTAL QUARTET ANGULAR MOMENTUM SUM 5,
        ERIC PROGRAM BY GRAHAM FLETCHER (ELORET AND NASA ADVANCED
        SUPERCOMPUTING DIVISION, AMES RESEARCH CENTER).
     S,P,D,F,G,L SHELL GENERAL RYS QUADRATURE PROGRAMMED BY
        MICHEL DUPUIS (PACIFIC NORTHWEST NATIONAL LABORATORY).

          --------------------
          2 ELECTRON INTEGRALS
          --------------------

 THE -PK- OPTION IS OFF, THE INTEGRALS ARE NOT IN SUPERMATRIX FORM.
 STORING   15000 INTEGRALS/RECORD ON DISK, USING 12 BYTES/INTEGRAL.
 TWO ELECTRON INTEGRAL EVALUATION REQUIRES   89821 WORDS OF MEMORY.
 SCHWARZ INEQUALITY OVERHEAD:      1797 INTEGRALS, T=        0.00
 II,JST,KST,LST =  1  1  1  1 NREC =         1 INTLOC =    1
 II,JST,KST,LST =  2  1  1  1 NREC =         1 INTLOC =    2
 II,JST,KST,LST =  3  1  1  1 NREC =         1 INTLOC =   34
 II,JST,KST,LST =  4  1  1  1 NREC =         1 INTLOC =  144
 II,JST,KST,LST =  5  1  1  1 NREC =         1 INTLOC = 1366
 II,JST,KST,LST =  6  1  1  1 NREC =         1 INTLOC = 1962
 II,JST,KST,LST =  7  1  1  1 NREC =         1 INTLOC = 6865
 II,JST,KST,LST =  8  1  1  1 NREC =         1 INTLOC = 8485
 II,JST,KST,LST =  9  1  1  1 NREC =         2 INTLOC = 5913
 II,JST,KST,LST = 10  1  1  1 NREC =         2 INTLOC = 9717
 II,JST,KST,LST = 11  1  1  1 NREC =         4 INTLOC = 5104
 II,JST,KST,LST = 12  1  1  1 NREC =         4 INTLOC =12234
 II,JST,KST,LST = 13  1  1  1 NREC =         7 INTLOC =12366
 II,JST,KST,LST = 14  1  1  1 NREC =         8 INTLOC = 8722
 II,JST,KST,LST = 15  1  1  1 NREC =        13 INTLOC = 5975
 II,JST,KST,LST = 16  1  1  1 NREC =        14 INTLOC = 8684
 II,JST,KST,LST = 17  1  1  1 NREC =        21 INTLOC =12865
 II,JST,KST,LST = 18  1  1  1 NREC =        23 INTLOC = 9039
 II,JST,KST,LST = 19  1  1  1 NREC =        34 INTLOC = 1965
 II,JST,KST,LST = 20  1  1  1 NREC =        35 INTLOC =12811
 II,JST,KST,LST = 21  1  1  1 NREC =        48 INTLOC = 1408
 II,JST,KST,LST = 22  1  1  1 NREC =        51 INTLOC =12361
 II,JST,KST,LST = 23  1  1  1 NREC =        56 INTLOC = 1774
 II,JST,KST,LST = 24  1  1  1 NREC =        60 INTLOC = 5896
 II,JST,KST,LST = 25  1  1  1 NREC =        65 INTLOC = 4892
 II,JST,KST,LST = 26  1  1  1 NREC =        70 INTLOC = 5818
 II,JST,KST,LST = 27  1  1  1 NREC =        75 INTLOC =12850
 II,JST,KST,LST = 28  1  1  1 NREC =        81 INTLOC = 8110
 II,JST,KST,LST = 29  1  1  1 NREC =        87 INTLOC = 6311
 II,JST,KST,LST = 30  1  1  1 NREC =        93 INTLOC = 9382
 SCHWARZ INEQUALITY TEST SKIPPED       24026 INTEGRAL BLOCKS.
 TOTAL NUMBER OF NONZERO TWO-ELECTRON INTEGRALS =             1487250
        100 INTEGRAL RECORDS WERE STORED ON DISK FILE  8.
  ...... END OF TWO-ELECTRON INTEGRALS .....
 STEP CPU TIME =     0.29 TOTAL CPU TIME =          0.4 (      0.0 MIN)
 TOTAL WALL CLOCK TIME=          0.4 SECONDS, CPU UTILIZATION IS    92.50%

          --------------------------
                 RHF SCF CALCULATION
          --------------------------

     NUCLEAR ENERGY =       511.4291510558
     MAXIT =   30     NPUNCH=    2
     EXTRAP=T  DAMP=F  SHIFT=F  RSTRCT=F  DIIS=F  DEM=F  SOSCF=T
     DENSITY MATRIX CONV=  1.00E-05
     SOSCF WILL OPTIMIZE     864 ORBITAL ROTATIONS, SOGTOL=   0.250
     MEMORY REQUIRED FOR RHF ITERS=     59496 WORDS.

 ITER EX DEM     TOTAL ENERGY        E CHANGE  DENSITY CHANGE     ORB. GRAD
   1  0  0     -415.5142735909  -415.5142735909   0.525859615   0.000000000
          ---------------START SECOND ORDER SCF---------------
   2  1  0     -416.0270675048    -0.5127939139   0.291663374   0.066088661
   3  2  0     -416.0575281768    -0.0304606720   0.137325777   0.049836409
   4  3  0     -416.0929947132    -0.0354665364   0.024509768   0.007796489
   5  4  0     -416.0939324572    -0.0009377439   0.005485277   0.003106874
   6  5  0     -416.0940492425    -0.0001167853   0.002211533   0.000765423
   7  6  0     -416.0940625007    -0.0000132582   0.000643060   0.000260787
   8  7  0     -416.0940644627    -0.0000019620   0.000223517   0.000072954
   9  8  0     -416.0940646656    -0.0000002029   0.000132035   0.000030747
  10  9  0     -416.0940647061    -0.0000000405   0.000080861   0.000016900
  11 10  0     -416.0940647129    -0.0000000068   0.000027923   0.000004080
  12 11  0     -416.0940647142    -0.0000000013   0.000010569   0.000001594
  13 12  0     -416.0940647144    -0.0000000002   0.000004546   0.000000697
  14 13  0     -416.0940647144    -0.0000000000   0.000001179   0.000000249

          -----------------
          DENSITY CONVERGED
          -----------------
     TIME TO FORM FOCK OPERATORS=       0.3 SECONDS (       0.0 SEC/ITER)
     TIME TO SOLVE SCF EQUATIONS=       0.0 SECONDS (       0.0 SEC/ITER)

 FINAL RHF ENERGY IS     -416.0940647144 AFTER  14 ITERATIONS

          ------------
          EIGENVECTORS
          ------------

                      1          2          3          4          5
                  -20.2645   -11.1197   -11.0567   -11.0499   -11.0469
                     A          A          A          A          A   
    1  C  1  S   -0.000000   0.000023  -0.026128  -0.005784   0.004741
    2  C  1  S    0.000003  -0.000004  -0.004001   0.000031   0.000144
    3  C  1  X    0.000001   0.000007  -0.002366  -0.000197  -0.000027
    4  C  1  Y   -0.000002   0.000015  -0.000607  -0.000119  -0.000001
    5  C  1  Z    0.000000  -0.000003  -0.001187  -0.000203  -0.000024
    6  C  2  S   -0.000001   0.000011  -0.000490   0.000059  -0.001577
    7  C  2  S    0.000012  -0.000036   0.000325   0.000058   0.002277
    8  C  2  X   -0.000004   0.000046   0.000188   0.000043  -0.000055
    9  C  2  Y    0.000005  -0.000016  -0.000030   0.000043   0.001435
   10  C  2  Z    0.000009  -0.000044  -0.000115  -0.000013   0.000621
   11  C  3  S   -0.000005  -0.000235  -0.000702   0.000851  -0.319082
   12  C  3  S   -0.000002   0.000319  -0.000025   0.000065  -0.014553
   13  C  3  X    0.000026  -0.000229  -0.000077   0.000008  -0.001971
   14  C  3  Y    0.000032  -0.000038   0.000024   0.000029  -0.000184
   15  C  3  Z    0.000022  -0.000141   0.000038   0.000014  -0.000870
   16  C  4  S   -0.000024  -0.001691  -0.004273  -0.008204   0.939055
   17  C  4  S    0.000270  -0.005340  -0.000085  -0.000325   0.035031
   18  C  4  X   -0.000112  -0.001196  -0.000009  -0.000083   0.000773
   19  C  4  Y    0.000386  -0.003342   0.000025   0.000012  -0.000492
   20  C  4  Z    0.000250   0.001869   0.000207   0.000150   0.000004
   21  C  5  S    0.000003  -0.000284   0.003095  -0.001097   0.004059
   22  C  5  S    0.000030   0.000057  -0.006845   0.000031  -0.006587
   23  C  5  X   -0.000052  -0.000033  -0.001017  -0.000099   0.002321
   24  C  5  Y   -0.000027  -0.000032   0.001136  -0.000068  -0.003618
   25  C  5  Z    0.000042   0.000013   0.004301   0.000083  -0.000712
   26  C  6  S    0.000003  -0.000243   0.991558   0.018908   0.004183
   27  C  6  S    0.000006  -0.000053   0.036317  -0.004974   0.000158
   28  C  6  X    0.000021  -0.000002   0.001042  -0.001197   0.000119
   29  C  6  Y   -0.000033  -0.000102   0.000778  -0.003280  -0.000161
   30  C  6  Z   -0.000010   0.000002   0.001047   0.002204   0.000028
   31  C  7  S    0.000005  -0.000271  -0.018109   0.991816   0.008070
   32  C  7  S    0.000054   0.000108  -0.006636   0.035848   0.000220
   33  C  7  X    0.000027  -0.000041   0.001121  -0.000392   0.000104
   34  C  7  Y    0.000052  -0.000039   0.003260   0.001607  -0.000019
   35  C  7  Z   -0.000050   0.000068  -0.002605   0.000364  -0.000128
   36  C  8  S   -0.000025  -0.001006  -0.000981   0.020134  -0.001146
   37  C  8  S    0.000269  -0.005677   0.000303  -0.007398   0.000014
   38  C  8  X   -0.000027   0.002037  -0.000001  -0.000895   0.000044
   39  C  8  Y    0.000512  -0.001070  -0.000149   0.004316   0.000047
   40  C  8  Z    0.000035  -0.003418   0.000089   0.001200   0.000014
   41  C  9  S    0.000547   0.992569   0.000254   0.000332   0.002459
   42  C  9  S   -0.007208   0.032683  -0.000002   0.000161  -0.005398
   43  C  9  X    0.001234  -0.000093  -0.000037  -0.000028   0.001081
   44  C  9  Y   -0.005967   0.000453   0.000096   0.000143   0.003179
   45  C  9  Z   -0.001923  -0.000053   0.000094   0.000034  -0.002199
   46  O 10  S    0.994266   0.000160   0.000005   0.000013  -0.000018
   47  O 10  S    0.026004  -0.005797  -0.000052  -0.000116   0.000222
   48  O 10  X    0.001078  -0.000331  -0.000007  -0.000020  -0.000031
   49  O 10  Y   -0.005250   0.001600   0.000033   0.000052  -0.000175
   50  O 10  Z   -0.001700   0.000540   0.000003   0.000034   0.000126
   51  H 11  S   -0.000002   0.000002   0.000336  -0.000018  -0.000017
   52  H 12  S   -0.000002   0.000008   0.000337  -0.000975  -0.000033
   53  H 13  S   -0.000002   0.000007  -0.000001   0.000001  -0.000018
   54  H 14  S    0.000085  -0.001088   0.000005  -0.000048   0.002382
   55  H 15  S   -0.000007  -0.000036  -0.000022  -0.000016   0.002364
   56  H 16  S   -0.000178  -0.000019  -0.000094  -0.000002  -0.006635
   57  H 17  S   -0.000020  -0.000055   0.000086  -0.000084   0.000075
   58  H 18  S   -0.000015  -0.000024  -0.006942  -0.000096  -0.000141
   59  H 19  S   -0.000022  -0.000038   0.000207  -0.006826  -0.000109
   60  H 20  S   -0.000191   0.000013  -0.000034   0.000010  -0.000063

                      6          7          8          9         10
                  -11.0460   -11.0458   -11.0267   -11.0150   -11.0080
                     A          A          A          A          A   
    1  C  1  S   -0.200744   0.971251  -0.000211   0.000876  -0.002490
    2  C  1  S   -0.007226   0.035457   0.000043   0.000284  -0.007133
    3  C  1  X    0.000274  -0.001538   0.000013  -0.000054   0.003180
    4  C  1  Y   -0.000152  -0.000005   0.000013   0.000022  -0.001039
    5  C  1  Z    0.000023  -0.000367  -0.000047  -0.000080  -0.003214
    6  C  2  S    0.002290   0.003837   0.000073  -0.016894   0.991973
    7  C  2  S   -0.004898  -0.007964   0.000026  -0.001097   0.036619
    8  C  2  X    0.000854  -0.003032   0.000007  -0.000602   0.002402
    9  C  2  Y   -0.004060   0.000219  -0.000001  -0.000054   0.000573
   10  C  2  Z   -0.002211   0.002688   0.000006  -0.000366   0.001079
   11  C  3  S    0.919676   0.191698  -0.000272   0.000796  -0.002568
   12  C  3  S    0.032649   0.006932   0.000091   0.000295  -0.007150
   13  C  3  X   -0.001708  -0.000475  -0.000023  -0.000058  -0.000271
   14  C  3  Y   -0.000650  -0.000130   0.000078   0.000015   0.004302
   15  C  3  Z   -0.001281  -0.000177  -0.000022  -0.000035   0.001722
   16  C  4  S    0.314280   0.060218   0.001348  -0.003259   0.000512
   17  C  4  S    0.008609   0.001623   0.000232  -0.007194   0.000038
   18  C  4  X    0.002751   0.000584   0.000025  -0.002406  -0.000035
   19  C  4  Y    0.000362   0.000083   0.000037   0.003868   0.000153
   20  C  4  Z    0.001264   0.000319   0.000056   0.000673   0.000046
   21  C  5  S    0.000764  -0.000593  -0.002720   0.991966   0.017126
   22  C  5  S   -0.002064  -0.000480  -0.000213   0.036580   0.000147
   23  C  5  X    0.000700   0.000112  -0.000050  -0.002147   0.000557
   24  C  5  Y   -0.001133  -0.000208  -0.000176   0.000026   0.000170
   25  C  5  Z   -0.000245  -0.000030   0.000132  -0.001450   0.000213
   26  C  6  S   -0.003422   0.027024   0.000634  -0.002283   0.000391
   27  C  6  S    0.000493  -0.001984   0.000394  -0.007128   0.000042
   28  C  6  X   -0.000384   0.002444   0.000112   0.001012   0.000081
   29  C  6  Y   -0.000227   0.000588   0.000055  -0.001040  -0.000054
   30  C  6  Z   -0.000215   0.001117  -0.000111  -0.004362  -0.000124
   31  C  7  S    0.000703   0.005544  -0.019608   0.001154  -0.000068
   32  C  7  S    0.000014   0.000180  -0.008948   0.000136   0.000008
   33  C  7  X    0.000042  -0.000010   0.000905  -0.000025  -0.000045
   34  C  7  Y   -0.000015   0.000001  -0.004456  -0.000093   0.000019
   35  C  7  Z   -0.000024  -0.000078  -0.001227  -0.000163  -0.000005
   36  C  8  S   -0.000201   0.000256   0.991965   0.002811  -0.000032
   37  C  8  S    0.000063   0.000027   0.036555   0.000039  -0.000015
   38  C  8  X   -0.000031  -0.000022   0.000358  -0.000012  -0.000002
   39  C  8  Y    0.000019  -0.000002  -0.001857   0.000128   0.000004
   40  C  8  Z   -0.000001  -0.000013  -0.000321  -0.000157  -0.000002
   41  C  9  S    0.001093   0.000195   0.001995   0.000354  -0.000008
   42  C  9  S   -0.001651  -0.000302  -0.005871   0.000110  -0.000015
   43  C  9  X    0.000324   0.000056  -0.002120  -0.000151  -0.000013
   44  C  9  Y    0.001018   0.000191   0.000911   0.000089  -0.000014
   45  C  9  Z   -0.000704  -0.000134   0.003496   0.000026  -0.000049
   46  O 10  S   -0.000014  -0.000002  -0.000022   0.000008  -0.000000
   47  O 10  S    0.000105   0.000017   0.000248  -0.000084   0.000007
   48  O 10  X   -0.000040  -0.000011   0.000111   0.000023   0.000007
   49  O 10  Y   -0.000080  -0.000013  -0.000062   0.000045  -0.000004
   50  O 10  Z    0.000032   0.000004  -0.000183   0.000012   0.000001
   51  H 11  S    0.001296  -0.006813  -0.000010  -0.000030   0.000098
   52  H 12  S    0.001385  -0.006824  -0.000093  -0.000065  -0.000011
   53  H 13  S    0.000034   0.000064  -0.000004   0.000130  -0.007015
   54  H 14  S   -0.006404  -0.001379  -0.000219  -0.000047  -0.000003
   55  H 15  S   -0.006353  -0.001437  -0.000019  -0.000042   0.000096
   56  H 16  S   -0.002060  -0.000413  -0.000098   0.000108  -0.000034
   57  H 17  S    0.000028   0.000006  -0.000042  -0.006928  -0.000105
   58  H 18  S   -0.000069  -0.000066  -0.000092   0.000097  -0.000047
   59  H 19  S   -0.000034   0.000003   0.000270  -0.000106  -0.000002
   60  H 20  S   -0.000024  -0.000008  -0.006866  -0.000079   0.000001

                     11         12         13         14         15
                   -1.3155    -1.0943    -1.0174    -0.9712    -0.9379
                     A          A          A          A          A   
    1  C  1  S   -0.000756  -0.059793  -0.097204   0.080179  -0.074555
    2  C  1  S    0.001831   0.158783   0.262363  -0.221584   0.213973
    3  C  1  X    0.000087  -0.001423  -0.062324   0.035030   0.031934
    4  C  1  Y    0.000407   0.017101   0.016785  -0.010852  -0.007665
    5  C  1  Z    0.000381   0.025053   0.044845  -0.010815  -0.002923
    6  C  2  S   -0.001090  -0.059954  -0.141189   0.073248   0.017155
    7  C  2  S    0.002398   0.149295   0.366194  -0.194309  -0.046121
    8  C  2  X    0.000552   0.030633   0.045256  -0.029788   0.038984
    9  C  2  Y    0.000904   0.019112   0.041941   0.003633  -0.067398
   10  C  2  Z    0.000349  -0.002484  -0.001862   0.027519  -0.055204
   11  C  3  S   -0.003421  -0.054250  -0.113337   0.017268   0.095707
   12  C  3  S    0.008302   0.143964   0.306967  -0.043912  -0.271862
   13  C  3  X    0.002433   0.019098   0.000850   0.024271  -0.001621
   14  C  3  Y    0.001607  -0.021873  -0.065134   0.040526  -0.005216
   15  C  3  Z    0.000158  -0.009004  -0.033078   0.035759  -0.001737
   16  C  4  S   -0.021302  -0.088122  -0.014265  -0.130114   0.075466
   17  C  4  S    0.053389   0.231618   0.041449   0.361140  -0.217561
   18  C  4  X    0.008407   0.031062  -0.032311   0.052518   0.018774
   19  C  4  Y    0.021849  -0.034408  -0.012159  -0.049974  -0.054952
   20  C  4  Z   -0.013387  -0.030359   0.002219   0.003128   0.016371
   21  C  5  S   -0.005510  -0.106522   0.005208  -0.125181  -0.055117
   22  C  5  S    0.012541   0.267441  -0.013591   0.334620   0.150098
   23  C  5  X   -0.002323  -0.021968  -0.021102  -0.047248   0.038961
   24  C  5  Y    0.005230   0.028297  -0.001194   0.054115  -0.075041
   25  C  5  Z   -0.001137  -0.055557   0.017050   0.005780  -0.082392
   26  C  6  S   -0.003185  -0.112357   0.030824  -0.014429  -0.131476
   27  C  6  S    0.007596   0.296680  -0.082975   0.035690   0.373977
   28  C  6  X   -0.000246  -0.009006  -0.037694  -0.013294   0.000274
   29  C  6  Y    0.002681   0.048129  -0.042932  -0.009638  -0.018025
   30  C  6  Z    0.000987   0.026017   0.012675   0.105485   0.025696
   31  C  7  S   -0.005954  -0.101256   0.101133   0.099185  -0.000320
   32  C  7  S    0.014149   0.257805  -0.266174  -0.267060   0.004661
   33  C  7  X   -0.002180  -0.029183   0.011996   0.009159  -0.003565
   34  C  7  Y    0.005553   0.012235  -0.056832  -0.068925  -0.132377
   35  C  7  Z    0.003195   0.044179  -0.026010   0.005502   0.014119
   36  C  8  S   -0.021555  -0.079543   0.099515   0.095187   0.091781
   37  C  8  S    0.052420   0.199599  -0.258329  -0.252501  -0.248511
   38  C  8  X   -0.013990  -0.001661  -0.009720  -0.019773   0.015719
   39  C  8  Y    0.004996  -0.061865   0.063579   0.058603   0.003080
   40  C  8  Z    0.023187   0.005526   0.006328   0.036123  -0.023330
   41  C  9  S   -0.127527  -0.035239   0.023030  -0.013454   0.067227
   42  C  9  S    0.295208   0.097806  -0.066227   0.038147  -0.198396
   43  C  9  X   -0.030543   0.014166  -0.036934  -0.039257  -0.016065
   44  C  9  Y    0.143501  -0.086049   0.026477  -0.059973   0.109534
   45  C  9  Z    0.046219  -0.025039   0.048952   0.075310   0.041500
   46  O 10  S   -0.214565   0.037889  -0.015667   0.010110  -0.047852
   47  O 10  S    0.749548  -0.141355   0.060116  -0.039623   0.191030
   48  O 10  X    0.031550  -0.002126  -0.007424  -0.010259  -0.001076
   49  O 10  Y   -0.155515   0.005810  -0.001875  -0.012286   0.021880
   50  O 10  Z   -0.050529   0.002923   0.008173   0.020645   0.007703
   51  H 11  S    0.000194   0.030073   0.057132  -0.056171   0.068437
   52  H 12  S    0.000434   0.038724   0.056036  -0.065729   0.062397
   53  H 13  S    0.000317   0.029482   0.083915  -0.047173  -0.011491
   54  H 14  S    0.003556   0.033578   0.070855  -0.010567  -0.085023
   55  H 15  S    0.001358   0.026504   0.067949  -0.005373  -0.080715
   56  H 16  S    0.008757   0.040206   0.014604   0.093315  -0.063521
   57  H 17  S    0.001499   0.049774   0.001792   0.086019   0.045337
   58  H 18  S    0.000807   0.055401  -0.016424   0.003981   0.117757
   59  H 19  S    0.001597   0.048257  -0.060385  -0.074618   0.007668
   60  H 20  S    0.008698   0.034037  -0.057384  -0.068554  -0.068009

                     16         17         18         19         20
                   -0.8528    -0.7758    -0.7541    -0.7087    -0.6569
                     A          A          A          A          A   
    1  C  1  S   -0.130128   0.038300  -0.006707   0.067448  -0.005553
    2  C  1  S    0.378996  -0.119079   0.025538  -0.216390   0.016763
    3  C  1  X   -0.042447  -0.056030   0.066951  -0.085185  -0.035660
    4  C  1  Y   -0.029800  -0.004438   0.001615   0.002871   0.147835
    5  C  1  Z   -0.029242   0.088315  -0.033770   0.172938  -0.010834
    6  C  2  S   -0.001248  -0.060881   0.046740  -0.113923   0.006810
    7  C  2  S    0.003526   0.181730  -0.141509   0.352221  -0.024247
    8  C  2  X    0.080601  -0.016376   0.000527  -0.030962   0.053587
    9  C  2  Y   -0.125261  -0.018332   0.050798  -0.106060   0.105117
   10  C  2  Z   -0.115956   0.039609  -0.014190   0.093149  -0.082218
   11  C  3  S    0.129193   0.014832  -0.038389   0.066097  -0.002731
   12  C  3  S   -0.376308  -0.050293   0.118690  -0.212443   0.007780
   13  C  3  X    0.055912  -0.018425  -0.015613   0.033561   0.059878
   14  C  3  Y    0.002033  -0.096016   0.088127  -0.183189   0.003753
   15  C  3  Z    0.003593  -0.027478  -0.022999  -0.009926  -0.127600
   16  C  4  S   -0.062798   0.079640   0.045082  -0.015122   0.028327
   17  C  4  S    0.182731  -0.247580  -0.133445   0.048712  -0.097464
   18  C  4  X    0.061677   0.049658  -0.016649   0.047425   0.092110
   19  C  4  Y    0.041012  -0.133651   0.142991   0.114412  -0.090282
   20  C  4  Z    0.004177  -0.038774  -0.124937  -0.040743  -0.186998
   21  C  5  S    0.006466  -0.098100   0.054278   0.048529  -0.027106
   22  C  5  S   -0.018632   0.291435  -0.164904  -0.148963   0.082674
   23  C  5  X   -0.038738   0.017485   0.074170   0.042667  -0.024140
   24  C  5  Y    0.064095  -0.095536  -0.047504   0.064470   0.114302
   25  C  5  Z    0.057678  -0.012145  -0.143622  -0.071897  -0.104308
   26  C  6  S    0.072488   0.009500  -0.083708  -0.031679   0.033424
   27  C  6  S   -0.211203  -0.034353   0.259025   0.099261  -0.112004
   28  C  6  X   -0.066464  -0.044642   0.021411   0.068758  -0.116069
   29  C  6  Y   -0.019685  -0.031299  -0.064014   0.048802   0.259981
   30  C  6  Z   -0.004871   0.191046   0.003304  -0.044095   0.065841
   31  C  7  S    0.055341   0.076690   0.085747  -0.021690  -0.025875
   32  C  7  S   -0.161050  -0.233631  -0.254361   0.069416   0.079224
   33  C  7  X   -0.015595  -0.015722  -0.062323   0.005947  -0.098917
   34  C  7  Y    0.068899   0.129723  -0.102617  -0.097982   0.041806
   35  C  7  Z   -0.002326   0.051578   0.110944   0.052009   0.121079
   36  C  8  S   -0.038560  -0.086304  -0.005598   0.042312   0.032392
   37  C  8  S    0.111438   0.256098   0.028470  -0.127781  -0.113665
   38  C  8  X   -0.033574  -0.008938  -0.113920  -0.032116  -0.052409
   39  C  8  Y    0.047201   0.107213   0.120537  -0.056589  -0.202308
   40  C  8  Z    0.050688   0.024475   0.171893   0.094587   0.070303
   41  C  9  S   -0.065261   0.002655  -0.105854  -0.054141   0.013873
   42  C  9  S    0.199471  -0.008869   0.338978   0.176481  -0.044220
   43  C  9  X    0.027434   0.110326   0.034217  -0.005781  -0.008055
   44  C  9  Y   -0.090077   0.076131  -0.078116  -0.080751  -0.056700
   45  C  9  Z   -0.017716  -0.163791  -0.102374   0.067226  -0.012777
   46  O 10  S    0.037838  -0.003275   0.058202   0.024419  -0.028801
   47  O 10  S   -0.157353   0.014498  -0.255832  -0.109868   0.137699
   48  O 10  X    0.012661   0.054059   0.028335   0.002199  -0.027737
   49  O 10  Y   -0.036776   0.042572  -0.091744  -0.077956   0.074248
   50  O 10  Z   -0.008081  -0.081036  -0.070134   0.031027   0.027645
   51  H 11  S    0.141844  -0.057291   0.018798  -0.120708  -0.100734
   52  H 12  S    0.120694  -0.096643   0.026139  -0.177680   0.081200
   53  H 13  S    0.001052   0.092548  -0.082331   0.232623  -0.113171
   54  H 14  S   -0.117783  -0.053224   0.103413  -0.168119   0.070796
   55  H 15  S   -0.140828  -0.033673   0.046983  -0.121409  -0.095294
   56  H 16  S    0.055507  -0.135690  -0.101651  -0.001632  -0.195211
   57  H 17  S   -0.009158   0.145639  -0.103342  -0.121310  -0.072765
   58  H 18  S   -0.078007  -0.030859   0.137709   0.037893  -0.258228
   59  H 19  S   -0.065389  -0.135380  -0.160713   0.015185  -0.077885
   60  H 20  S    0.036216   0.135706  -0.013975  -0.121236  -0.192895

                     21         22         23         24         25
                   -0.6044    -0.5931    -0.5874    -0.5544    -0.5396
                     A          A          A          A          A   
    1  C  1  S    0.014342  -0.009300  -0.000335   0.000461   0.005143
    2  C  1  S   -0.051354   0.027021  -0.003414  -0.001117  -0.025366
    3  C  1  X   -0.066131  -0.033206  -0.091147   0.005564  -0.117502
    4  C  1  Y    0.252409  -0.154222  -0.045616   0.214133  -0.131755
    5  C  1  Z    0.053587  -0.070591   0.147983  -0.130463   0.175028
    6  C  2  S   -0.025567   0.007275  -0.006312  -0.015832  -0.008135
    7  C  2  S    0.079320  -0.020369   0.019565   0.052398   0.026686
    8  C  2  X    0.093008  -0.085993   0.088598  -0.059373   0.084081
    9  C  2  Y    0.176781  -0.106510  -0.046240   0.130486  -0.099269
   10  C  2  Z   -0.113678   0.004348  -0.113366   0.004245  -0.135124
   11  C  3  S    0.012195  -0.010652   0.006177   0.004929   0.001786
   12  C  3  S   -0.044386   0.034176  -0.017653  -0.026097  -0.001952
   13  C  3  X    0.141213  -0.112401   0.083649  -0.073982   0.089402
   14  C  3  Y   -0.062797   0.104603   0.138544  -0.151787   0.203688
   15  C  3  Z   -0.239339   0.026617  -0.126354   0.010257  -0.169396
   16  C  4  S    0.003292   0.055948   0.007928   0.020212  -0.010097
   17  C  4  S   -0.008551  -0.189973  -0.022711  -0.070437   0.034366
   18  C  4  X    0.010459   0.078109  -0.064452  -0.056784  -0.044994
   19  C  4  Y    0.011077   0.066003   0.222751   0.137525  -0.068761
   20  C  4  Z   -0.006884  -0.112643  -0.054057   0.231135   0.124187
   21  C  5  S   -0.011585  -0.056424   0.003907   0.010005   0.017204
   22  C  5  S    0.041121   0.192160  -0.011965  -0.028355  -0.056211
   23  C  5  X   -0.011900   0.069866   0.098672   0.100457  -0.026199
   24  C  5  Y   -0.065765  -0.157542  -0.165872  -0.200758  -0.013451
   25  C  5  Z    0.102736   0.140379  -0.115381   0.170142   0.198455
   26  C  6  S    0.009898   0.054736  -0.011213  -0.001549   0.007198
   27  C  6  S   -0.032799  -0.191858   0.034547   0.007341  -0.021439
   28  C  6  X    0.034351   0.025869  -0.019315   0.073225   0.125677
   29  C  6  Y   -0.075176   0.024663  -0.122648  -0.040295  -0.055510
   30  C  6  Z   -0.050105   0.055171   0.197671  -0.047894  -0.157635
   31  C  7  S   -0.003688  -0.045458   0.009938  -0.006529  -0.018366
   32  C  7  S    0.024346   0.151366  -0.052170   0.011448   0.061752
   33  C  7  X    0.105755   0.091597   0.007621  -0.130405  -0.028630
   34  C  7  Y   -0.141016  -0.007812   0.260169   0.138714  -0.036585
   35  C  7  Z   -0.208515  -0.121891   0.011586   0.205581   0.104167
   36  C  8  S    0.020898   0.045758  -0.022473  -0.020217  -0.004385
   37  C  8  S   -0.055370  -0.151599   0.062461   0.058481   0.013166
   38  C  8  X   -0.016941  -0.052638   0.110415  -0.024156  -0.101045
   39  C  8  Y    0.174389  -0.131790  -0.139361  -0.226183  -0.103621
   40  C  8  Z   -0.017872   0.112768  -0.178919   0.076332   0.173454
   41  C  9  S   -0.042812  -0.080180   0.012344  -0.009092   0.022760
   42  C  9  S    0.146957   0.279839  -0.039800   0.029267  -0.077334
   43  C  9  X   -0.019460  -0.023943  -0.193355   0.048355   0.084669
   44  C  9  Y    0.066316   0.014627  -0.108398   0.020019  -0.036663
   45  C  9  Z   -0.006637   0.037060   0.223491   0.046853  -0.236995
   46  O 10  S    0.041043   0.049812  -0.005356   0.009103  -0.034295
   47  O 10  S   -0.202033  -0.245431   0.026165  -0.046550   0.178370
   48  O 10  X    0.038931   0.023660  -0.177102   0.020672   0.024550
   49  O 10  Y   -0.149940  -0.235437  -0.078835  -0.071816   0.271910
   50  O 10  Z   -0.085213  -0.042492   0.224951   0.065678  -0.129972
   51  H 11  S   -0.228568   0.143399  -0.000694  -0.148350   0.056406
   52  H 12  S    0.071944  -0.018387  -0.130205   0.198067  -0.208060
   53  H 13  S   -0.140128   0.081061  -0.039008  -0.035049  -0.012459
   54  H 14  S    0.077753   0.066905   0.151177  -0.117917   0.235409
   55  H 15  S   -0.238597   0.098299  -0.109427   0.022763  -0.131345
   56  H 16  S   -0.019389  -0.176612   0.001071   0.190848   0.112315
   57  H 17  S    0.107583   0.259207   0.024433   0.208447   0.101276
   58  H 18  S    0.051624  -0.096161   0.063736   0.063454   0.112441
   59  H 19  S    0.212460   0.194902  -0.074860  -0.223249  -0.051565
   60  H 20  S    0.075950  -0.217899   0.049123  -0.160316  -0.169692

                     26         27         28         29         30
                   -0.5170    -0.5079    -0.4880    -0.4776    -0.4470
                     A          A          A          A          A   
    1  C  1  S    0.009318   0.009040  -0.008105  -0.029636   0.009781
    2  C  1  S   -0.036824  -0.019979   0.031987   0.103537  -0.036556
    3  C  1  X    0.007188   0.229368   0.053914  -0.140609   0.053941
    4  C  1  Y   -0.049160  -0.023682  -0.249102   0.129639  -0.141003
    5  C  1  Z   -0.213713   0.006641   0.085476   0.210496  -0.161694
    6  C  2  S   -0.013600   0.015961   0.008842   0.005981  -0.003191
    7  C  2  S    0.048240  -0.057042  -0.037326  -0.026278   0.011719
    8  C  2  X   -0.169193   0.048129   0.089945   0.224544  -0.113926
    9  C  2  Y    0.131868   0.068501   0.296461   0.021165   0.138230
   10  C  2  Z    0.041095   0.232660   0.005233  -0.188417   0.107124
   11  C  3  S   -0.009418  -0.000533  -0.032607  -0.001513  -0.005691
   12  C  3  S    0.023555   0.009707   0.113518   0.009957   0.018342
   13  C  3  X   -0.060498   0.195018   0.059339  -0.087215   0.086755
   14  C  3  Y   -0.116362  -0.165650  -0.237073  -0.031156  -0.136628
   15  C  3  Z   -0.155493   0.074274  -0.076924   0.294421  -0.144308
   16  C  4  S   -0.009651  -0.008691  -0.001912   0.001195   0.000425
   17  C  4  S    0.027093   0.042908   0.006914   0.002778   0.006568
   18  C  4  X    0.241353  -0.149420   0.034957  -0.035528  -0.166313
   19  C  4  Y    0.034663  -0.037737  -0.130441   0.085783   0.207195
   20  C  4  Z   -0.141522  -0.192619   0.033853  -0.044321   0.172271
   21  C  5  S   -0.010418   0.020069   0.006979   0.006903  -0.001640
   22  C  5  S    0.038542  -0.070444  -0.027087  -0.024170   0.005107
   23  C  5  X    0.073298  -0.187590  -0.064517   0.026818   0.174634
   24  C  5  Y    0.120922  -0.135081   0.102850  -0.086971  -0.184393
   25  C  5  Z    0.103018   0.073206  -0.016016  -0.079533  -0.255540
   26  C  6  S    0.019106   0.011953   0.005474   0.010886  -0.004893
   27  C  6  S   -0.074945  -0.033728  -0.016983  -0.042293   0.006417
   28  C  6  X    0.190279  -0.156442  -0.000475  -0.040574  -0.061355
   29  C  6  Y   -0.176678  -0.204589  -0.106504  -0.114748   0.138692
   30  C  6  Z   -0.026423  -0.102703   0.010254   0.127698   0.303092
   31  C  7  S    0.021615   0.001881  -0.011261   0.004075  -0.002232
   32  C  7  S   -0.078970  -0.013356   0.026634  -0.016030   0.015118
   33  C  7  X    0.116829  -0.113524   0.070889   0.146712   0.103971
   34  C  7  Y    0.026181   0.102643   0.160945   0.043037  -0.037614
   35  C  7  Z   -0.041953  -0.140440   0.054548  -0.146734  -0.102261
   36  C  8  S   -0.009484  -0.005617   0.001263   0.004311   0.011396
   37  C  8  S    0.035753   0.014572  -0.016034  -0.015935  -0.039805
   38  C  8  X    0.063486  -0.171313   0.116167  -0.009841  -0.050998
   39  C  8  Y    0.021738  -0.123979  -0.159548  -0.026734   0.051810
   40  C  8  Z    0.051548  -0.021928   0.036364   0.155841   0.103428
   41  C  9  S    0.007871  -0.011113  -0.009334  -0.015196   0.000792
   42  C  9  S   -0.020153   0.045285   0.028125   0.061112  -0.000912
   43  C  9  X    0.122715  -0.191888   0.144401   0.167243   0.037749
   44  C  9  Y   -0.287369  -0.117558   0.188124  -0.169053  -0.059447
   45  C  9  Z    0.078405  -0.151255   0.112265  -0.052635  -0.150674
   46  O 10  S   -0.051711  -0.017247   0.031195  -0.026263  -0.013447
   47  O 10  S    0.276048   0.093063  -0.171573   0.146767   0.078004
   48  O 10  X   -0.025550  -0.199172   0.225120   0.091385   0.028013
   49  O 10  Y    0.291890   0.099397  -0.228678   0.246756   0.226667
   50  O 10  Z    0.255508  -0.051164  -0.048044   0.050861  -0.142110
   51  H 11  S    0.085354   0.033303   0.240189  -0.138440   0.170247
   52  H 12  S    0.096901   0.005502  -0.214800  -0.053649   0.021212
   53  H 13  S    0.009413   0.031958  -0.264856  -0.215000   0.003409
   54  H 14  S    0.014244  -0.118812  -0.095349  -0.227867   0.010451
   55  H 15  S   -0.082194  -0.092488  -0.073486   0.275953  -0.179043
   56  H 16  S   -0.163334  -0.119267  -0.008732  -0.003913   0.260563
   57  H 17  S    0.005217   0.104258  -0.100161  -0.008281  -0.046505
   58  H 18  S    0.201833   0.092823   0.084743   0.027349  -0.202987
   59  H 19  S    0.044964   0.033353  -0.029186   0.181775   0.168512
   60  H 20  S    0.026993  -0.118653  -0.113322  -0.116697  -0.056129

                     31         32         33         34         35
                   -0.4434    -0.4185    -0.3647    -0.3155    -0.2824
                     A          A          A          A          A   
    1  C  1  S   -0.008528   0.002737  -0.002588   0.000069  -0.027066
    2  C  1  S    0.036443   0.004707  -0.005951  -0.000916   0.128640
    3  C  1  X    0.042780   0.248539  -0.098127   0.001278   0.299193
    4  C  1  Y   -0.155043   0.082417   0.039936   0.017461   0.091605
    5  C  1  Z    0.142560   0.062013  -0.160999  -0.031564   0.170081
    6  C  2  S    0.003258   0.020123   0.012902   0.004043   0.006617
    7  C  2  S   -0.017020  -0.071301  -0.049083  -0.013479  -0.027406
    8  C  2  X    0.106584   0.030059   0.096128  -0.012796   0.039419
    9  C  2  Y    0.145060  -0.141584  -0.082770  -0.018997   0.025800
   10  C  2  Z   -0.000255   0.191105   0.080612   0.007075   0.112565
   11  C  3  S   -0.016422  -0.003709  -0.013769   0.002325   0.012556
   12  C  3  S    0.058401   0.014476   0.076267  -0.010720  -0.070017
   13  C  3  X    0.014930   0.097901   0.337491   0.003585  -0.205707
   14  C  3  Y   -0.132369   0.162613   0.024996   0.024599   0.009796
   15  C  3  Z    0.020717  -0.076967   0.165422  -0.021264  -0.105157
   16  C  4  S    0.025356   0.008798  -0.017283   0.030996   0.008919
   17  C  4  S   -0.092518  -0.029833   0.092267  -0.141383  -0.051208
   18  C  4  X   -0.030023  -0.039937  -0.284584  -0.099202   0.230979
   19  C  4  Y    0.139375   0.033460  -0.048834  -0.268585   0.116089
   20  C  4  Z   -0.026482   0.011912  -0.211964   0.174744   0.092926
   21  C  5  S    0.005244   0.016576   0.012164  -0.006351   0.003719
   22  C  5  S   -0.011122  -0.061848  -0.043277   0.019895  -0.011216
   23  C  5  X    0.027308  -0.113481  -0.026090  -0.125749  -0.004871
   24  C  5  Y   -0.164791  -0.117865  -0.090993   0.042001   0.041877
   25  C  5  Z    0.162510  -0.021451   0.023242  -0.081266   0.067563
   26  C  6  S   -0.003088  -0.007895   0.018742   0.001576  -0.005782
   27  C  6  S    0.022576   0.042334  -0.082601  -0.009816   0.047568
   28  C  6  X   -0.044363  -0.256669   0.242936  -0.027195  -0.233209
   29  C  6  Y    0.271025  -0.045656   0.075901  -0.045296  -0.047611
   30  C  6  Z   -0.201809  -0.050851   0.012408   0.082517  -0.087544
   31  C  7  S   -0.011242   0.004107  -0.010049   0.011982   0.005122
   32  C  7  S    0.058254  -0.013299   0.039799  -0.043419  -0.020653
   33  C  7  X   -0.070660  -0.007209   0.308617   0.176342   0.332172
   34  C  7  Y   -0.294703   0.021330  -0.026220  -0.024324   0.060548
   35  C  7  Z    0.139563  -0.054214   0.274882  -0.003419   0.158409
   36  C  8  S   -0.004210  -0.000248   0.005898  -0.036784   0.007050
   37  C  8  S    0.033597   0.000511  -0.024560   0.164187  -0.034035
   38  C  8  X    0.007518   0.077882   0.342296  -0.037283   0.393026
   39  C  8  Y    0.213251  -0.005953   0.017686   0.045734  -0.006787
   40  C  8  Z    0.012209   0.075452   0.137425   0.327252   0.173894
   41  C  9  S   -0.003416  -0.002244   0.008101  -0.000924  -0.008857
   42  C  9  S    0.014516   0.011812  -0.029902   0.001870   0.037465
   43  C  9  X    0.003983   0.382019  -0.015630   0.051054  -0.147628
   44  C  9  Y   -0.145736  -0.020983   0.028730   0.068281  -0.051451
   45  C  9  Z    0.097813   0.199684   0.027520  -0.177047  -0.045660
   46  O 10  S   -0.011982  -0.002950   0.001019   0.000346   0.000145
   47  O 10  S    0.070127   0.017801  -0.008534  -0.001786   0.001871
   48  O 10  X   -0.116787   0.414842   0.053129  -0.439625  -0.272159
   49  O 10  Y    0.033889   0.048959   0.006412  -0.278404   0.072113
   50  O 10  Z    0.307759   0.254056  -0.087307   0.576293  -0.312002
   51  H 11  S    0.138070  -0.084679  -0.003621  -0.013355  -0.075771
   52  H 12  S   -0.194802   0.047814   0.132762   0.032529  -0.025232
   53  H 13  S   -0.164197   0.189572   0.063709   0.023047   0.028254
   54  H 14  S   -0.094639   0.175736  -0.049648   0.048368   0.062112
   55  H 15  S    0.016333  -0.094158  -0.079800  -0.020314   0.044746
   56  H 16  S   -0.032456   0.015231  -0.118627   0.109623   0.033554
   57  H 17  S    0.242396   0.044805   0.078775  -0.112478   0.018991
   58  H 18  S   -0.221826  -0.075059   0.019730   0.008981  -0.083335
   59  H 19  S   -0.069743   0.032965  -0.066828   0.115217   0.004252
   60  H 20  S    0.189538  -0.025421   0.040843  -0.120351   0.004818

                     36         37         38         39         40
                   -0.2114     0.1941     0.2213     0.3783     0.3917
                     A          A          A          A          A   
    1  C  1  S   -0.028069  -0.011024  -0.038343   0.030040  -0.039699
    2  C  1  S    0.104037   0.079978   0.188908  -0.130636   0.202124
    3  C  1  X    0.169881   0.223921   0.268265  -0.286635   0.387221
    4  C  1  Y    0.050188   0.028952   0.073587  -0.035207   0.075066
    5  C  1  Z    0.116841   0.073510   0.142965  -0.275177   0.172280
    6  C  2  S    0.024990  -0.022922  -0.003032  -0.002489  -0.005650
    7  C  2  S   -0.120326   0.127067   0.017336   0.018532   0.043495
    8  C  2  X    0.438725  -0.460428  -0.087461  -0.084383  -0.209394
    9  C  2  Y   -0.048234   0.010320   0.036537  -0.010454   0.010776
   10  C  2  Z    0.351307  -0.344690  -0.016738  -0.076934  -0.157019
   11  C  3  S   -0.030849  -0.017660   0.032974  -0.051031  -0.008998
   12  C  3  S    0.117090   0.112562  -0.154928   0.244588   0.059392
   13  C  3  X    0.226653   0.241831  -0.210522   0.511427   0.047418
   14  C  3  Y    0.008133   0.075712  -0.016464   0.012262   0.101434
   15  C  3  Z    0.102385   0.139006  -0.082170   0.286421   0.008613
   16  C  4  S    0.033835  -0.014871  -0.015675   0.053207  -0.023187
   17  C  4  S   -0.134186   0.094768   0.061120  -0.256025   0.134095
   18  C  4  X    0.181014  -0.250339  -0.136910   0.476013  -0.093021
   19  C  4  Y    0.034981  -0.011813  -0.035310   0.150211  -0.070593
   20  C  4  Z    0.129513  -0.109699  -0.074358   0.246911  -0.029036
   21  C  5  S   -0.024937  -0.022704  -0.002364   0.007312   0.020400
   22  C  5  S    0.119016   0.126021   0.011694  -0.040777  -0.112292
   23  C  5  X    0.504546   0.565819   0.028132  -0.065239  -0.076602
   24  C  5  Y    0.226687   0.214993   0.060054   0.013476  -0.091856
   25  C  5  Z    0.115466   0.165742   0.059285   0.047203  -0.029626
   26  C  6  S    0.030973  -0.016833   0.010645  -0.056178   0.020831
   27  C  6  S   -0.123070   0.102666  -0.029620   0.287169  -0.087822
   28  C  6  X    0.229779  -0.239105   0.105550  -0.448485   0.291550
   29  C  6  Y    0.036621  -0.066497   0.024655  -0.118304   0.052993
   30  C  6  Z    0.091246  -0.157308   0.029124  -0.132581   0.119973
   31  C  7  S    0.009331   0.017700   0.004961   0.000456  -0.000825
   32  C  7  S   -0.038583  -0.084961  -0.022772  -0.003605   0.007023
   33  C  7  X   -0.038661  -0.072529   0.482984   0.398239   0.277769
   34  C  7  Y    0.033456   0.080711   0.047529   0.022066   0.010228
   35  C  7  Z   -0.065519  -0.116406   0.252853   0.220187   0.147189
   36  C  8  S   -0.004574  -0.008418  -0.001049  -0.002257  -0.002056
   37  C  8  S    0.020411   0.037503   0.004843   0.013242   0.011621
   38  C  8  X   -0.141644   0.160306  -0.329237  -0.301606  -0.461718
   39  C  8  Y   -0.002626   0.005403  -0.012221  -0.009965  -0.011784
   40  C  8  Z   -0.043434   0.120792  -0.201706  -0.188138  -0.277608
   41  C  9  S    0.009393   0.019904  -0.001429  -0.001271   0.000227
   42  C  9  S   -0.040013  -0.095788   0.005359   0.009847  -0.000490
   43  C  9  X    0.024551   0.024879  -0.406455  -0.014171   0.556859
   44  C  9  Y    0.050538   0.089417  -0.011805   0.010694   0.008440
   45  C  9  Z   -0.043214  -0.090328  -0.245046  -0.008149   0.328771
   46  O 10  S   -0.000156  -0.002396  -0.000374   0.001606  -0.000477
   47  O 10  S   -0.001115   0.010687   0.002603  -0.010825   0.002583
   48  O 10  X   -0.055831  -0.005439   0.473555   0.007977  -0.397481
   49  O 10  Y   -0.044880  -0.049113   0.004829   0.016996  -0.009508
   50  O 10  Z    0.056333   0.059910   0.278059   0.009658  -0.233278
   51  H 11  S   -0.002691  -0.057166  -0.044854  -0.017264  -0.035023
   52  H 12  S    0.077206  -0.150062  -0.028986  -0.083537  -0.045197
   53  H 13  S    0.052563  -0.020218  -0.000703  -0.000231   0.013965
   54  H 14  S    0.070326  -0.142219  -0.009651   0.020682  -0.080131
   55  H 15  S   -0.001659  -0.074821   0.025010  -0.009861  -0.038246
   56  H 16  S    0.008040  -0.066710   0.021737  -0.007635  -0.093510
   57  H 17  S   -0.063386  -0.024059  -0.002772   0.003116   0.033347
   58  H 18  S    0.000888  -0.072425  -0.058847  -0.073164  -0.076617
   59  H 19  S    0.024629   0.034396   0.000908   0.003176  -0.017919
   60  H 20  S   -0.025949  -0.047887  -0.013310  -0.017669  -0.011208

                     41         42         43         44         45
                    0.5297     0.5709     0.5867     0.6195     0.6258
                     A          A          A          A          A   
    1  C  1  S   -0.013691  -0.023574   0.000825  -0.006206   0.036299
    2  C  1  S    0.054121   0.152620  -0.004498   0.041858  -0.227769
    3  C  1  X    0.454631  -0.054640   0.016836  -0.043662  -0.004881
    4  C  1  Y    0.080149  -0.260362   0.176507   0.076467   0.380191
    5  C  1  Z    0.198914   0.030201  -0.125405  -0.029469  -0.114919
    6  C  2  S   -0.034026  -0.020573   0.011701   0.002629   0.045140
    7  C  2  S    0.212433   0.127690  -0.073542  -0.018887  -0.285751
    8  C  2  X   -0.274594  -0.092702   0.076713  -0.039907   0.229956
    9  C  2  Y    0.053134  -0.190281   0.126479   0.012613   0.365287
   10  C  2  Z   -0.238594   0.138976  -0.090971   0.016015  -0.240259
   11  C  3  S   -0.014430  -0.012457   0.023733   0.027329   0.030290
   12  C  3  S    0.057844   0.081323  -0.152144  -0.170220  -0.189527
   13  C  3  X    0.437926  -0.142854   0.127618   0.026349   0.157611
   14  C  3  Y    0.109393  -0.135387   0.015737  -0.117122   0.153605
   15  C  3  Z    0.249637   0.216577  -0.095659   0.099609  -0.348782
   16  C  4  S    0.046079   0.000970   0.048445   0.106420  -0.009766
   17  C  4  S   -0.242619   0.016757  -0.294644  -0.623059   0.071372
   18  C  4  X    0.458842  -0.146374   0.037440  -0.264187  -0.130738
   19  C  4  Y   -0.006321  -0.229804  -0.112119  -0.489227  -0.107252
   20  C  4  Z    0.261834   0.338552  -0.133444   0.157539   0.189900
   21  C  5  S    0.010921  -0.045113   0.018492   0.004064  -0.051719
   22  C  5  S   -0.081764   0.282173  -0.118665  -0.028289   0.325452
   23  C  5  X   -0.343460   0.032984  -0.040837   0.070694   0.064500
   24  C  5  Y   -0.149237  -0.241031   0.085830   0.097799  -0.223615
   25  C  5  Z   -0.055585   0.223884  -0.160027   0.158845   0.228598
   26  C  6  S    0.042589  -0.052124  -0.066794  -0.013310   0.007583
   27  C  6  S   -0.223902   0.328912   0.386628   0.074668  -0.030689
   28  C  6  X    0.416657   0.161299   0.209621  -0.120741  -0.039204
   29  C  6  Y    0.083478  -0.306344   0.335329   0.199445  -0.335400
   30  C  6  Z    0.315793  -0.021808  -0.297013   0.044705   0.078536
   31  C  7  S   -0.018252  -0.050755   0.024433   0.054545  -0.052284
   32  C  7  S    0.105000   0.307929  -0.132471  -0.363031   0.313324
   33  C  7  X   -0.271546   0.099013   0.221855  -0.091583  -0.006353
   34  C  7  Y   -0.071141  -0.115215   0.269319   0.145453  -0.203688
   35  C  7  Z   -0.082525  -0.234400  -0.500050   0.210543   0.032091
   36  C  8  S    0.015556   0.013115   0.024468   0.107470   0.001481
   37  C  8  S   -0.091062  -0.055309  -0.126817  -0.662208  -0.003159
   38  C  8  X    0.216445   0.151311   0.318746   0.000307  -0.047723
   39  C  8  Y   -0.009701   0.019042   0.078891  -0.400805  -0.025301
   40  C  8  Z    0.145397  -0.207365  -0.494188  -0.051888   0.066933
   41  C  9  S   -0.020654  -0.091774  -0.093772  -0.123878  -0.019411
   42  C  9  S    0.118881   0.540278   0.553763   0.727455   0.112008
   43  C  9  X   -0.288827  -0.021336   0.193217   0.022235  -0.083104
   44  C  9  Y   -0.069193  -0.147175  -0.054447  -0.450463  -0.082449
   45  C  9  Z   -0.093766   0.029904  -0.322855   0.117023   0.132352
   46  O 10  S    0.003506   0.018709   0.014192   0.006533   0.003863
   47  O 10  S   -0.021095  -0.116920  -0.084839  -0.025381  -0.025090
   48  O 10  X    0.145024  -0.014091  -0.073948   0.001012   0.017133
   49  O 10  Y    0.041651   0.170039   0.079768   0.068922   0.053313
   50  O 10  Z    0.067422   0.032974   0.119386  -0.066747  -0.030958
   51  H 11  S    0.075107  -0.318521   0.158364   0.045313   0.459480
   52  H 12  S    0.000281   0.133353  -0.222895  -0.089735  -0.241500
   53  H 13  S   -0.044220  -0.348179   0.224871  -0.008818   0.658636
   54  H 14  S   -0.008914   0.229097  -0.026024   0.225587  -0.287445
   55  H 15  S    0.070611  -0.286657   0.231555   0.030469   0.443462
   56  H 16  S    0.005874  -0.319486   0.335910   0.217344  -0.236606
   57  H 17  S   -0.040960  -0.514860   0.258472  -0.047158  -0.510993
   58  H 18  S    0.030538  -0.527776  -0.085624   0.194853  -0.235383
   59  H 19  S   -0.012212  -0.461559  -0.417991   0.427632  -0.171481
   60  H 20  S    0.089849  -0.137203  -0.388823   0.657603   0.088405

                     46         47         48         49         50
                    0.6607     0.6978     0.7140     0.7291     0.7432
                     A          A          A          A          A   
    1  C  1  S    0.026938  -0.102925  -0.055727   0.120625  -0.070395
    2  C  1  S   -0.166456   0.655562   0.346993  -0.770596   0.444502
    3  C  1  X    0.073571   0.041126  -0.167795   0.089500   0.133811
    4  C  1  Y   -0.277919  -0.297353   0.210799  -0.441844  -0.090589
    5  C  1  Z    0.086908  -0.359301   0.041257   0.304847  -0.321103
    6  C  2  S   -0.008923   0.053940   0.077827  -0.012901  -0.012342
    7  C  2  S    0.052128  -0.328285  -0.483329   0.080643   0.104608
    8  C  2  X    0.014195   0.107407  -0.033064   0.153397   0.061676
    9  C  2  Y   -0.134772  -0.058302   0.084080  -0.221581  -0.038679
   10  C  2  Z   -0.079245  -0.087275   0.044990  -0.206355   0.035768
   11  C  3  S    0.002518  -0.062553  -0.127669  -0.091683  -0.073079
   12  C  3  S   -0.018284   0.388045   0.815547   0.589358   0.461115
   13  C  3  X    0.137332   0.051942  -0.343999   0.082333  -0.071979
   14  C  3  Y   -0.069232   0.013147   0.248512   0.247334   0.313090
   15  C  3  Z   -0.207090  -0.300741   0.126452  -0.473684  -0.053189
   16  C  4  S    0.017255  -0.015893  -0.057365   0.025050   0.126615
   17  C  4  S   -0.116763   0.100148   0.372792  -0.139420  -0.789479
   18  C  4  X    0.233063   0.185607   0.112860  -0.093995  -0.142670
   19  C  4  Y   -0.179729  -0.147647   0.018848   0.012613   0.134994
   20  C  4  Z   -0.486868  -0.064260   0.164684   0.221373  -0.093947
   21  C  5  S    0.005898   0.044712   0.067055  -0.000147  -0.145019
   22  C  5  S   -0.043485  -0.279422  -0.433279   0.003936   0.923186
   23  C  5  X    0.206173  -0.011112   0.027580  -0.076878  -0.150935
   24  C  5  Y   -0.123084  -0.121567   0.016087   0.092624   0.030310
   25  C  5  Z   -0.218498  -0.011615   0.030025   0.158641  -0.077915
   26  C  6  S    0.070782  -0.090737   0.009011  -0.044849   0.116222
   27  C  6  S   -0.418997   0.573757  -0.049620   0.262877  -0.728637
   28  C  6  X   -0.092670   0.362149  -0.124243  -0.069832  -0.091625
   29  C  6  Y   -0.469678  -0.177513   0.045437   0.214197   0.172437
   30  C  6  Z    0.016409  -0.101971   0.296667  -0.008924  -0.197507
   31  C  7  S   -0.111342   0.088474  -0.075170   0.042369  -0.027493
   32  C  7  S    0.682943  -0.576868   0.474907  -0.257760   0.168256
   33  C  7  X    0.058622  -0.134155  -0.036217   0.046320   0.057561
   34  C  7  Y   -0.265598   0.063645   0.087897   0.167725  -0.157810
   35  C  7  Z    0.039004   0.011088  -0.010670   0.039682  -0.065904
   36  C  8  S    0.091530  -0.030933   0.108515   0.006098  -0.032931
   37  C  8  S   -0.552601   0.181333  -0.696678  -0.043438   0.220944
   38  C  8  X   -0.013687   0.008221   0.054851   0.043923  -0.038415
   39  C  8  Y   -0.172381  -0.227492  -0.025838   0.022959   0.070344
   40  C  8  Z   -0.029679   0.108965  -0.058683  -0.114683   0.009898
   41  C  9  S    0.002517   0.035221  -0.037000  -0.046853  -0.023041
   42  C  9  S   -0.027578  -0.224698   0.220161   0.283334   0.136880
   43  C  9  X    0.192368  -0.081128   0.137221  -0.047753  -0.128581
   44  C  9  Y   -0.072418  -0.125423   0.083844  -0.047293  -0.087460
   45  C  9  Z   -0.291481  -0.008365  -0.401041  -0.012742   0.240695
   46  O 10  S   -0.017170  -0.021041   0.005269   0.010528   0.008715
   47  O 10  S    0.122561   0.143932  -0.033192  -0.070494  -0.059242
   48  O 10  X   -0.024008   0.067110  -0.043854  -0.004456   0.020082
[...]
   29  C  6  Y   -0.205635  -0.134521   0.020603  -0.526518   0.032976
   30  C  6  Z    0.073994   0.070312   0.204642   0.269646   0.041622
   31  C  7  S   -0.036797  -0.026191   0.025531  -0.082063   0.016174
   32  C  7  S    0.215750   0.157325  -0.177069   0.497311  -0.121160
   33  C  7  X    0.040838  -0.003585  -0.261698  -0.008222  -0.091733
   34  C  7  Y   -0.099325  -0.077265  -0.073598  -0.374254   0.059355
   35  C  7  Z   -0.102264   0.075020   0.511876   0.236372   0.141126
   36  C  8  S    0.048147   0.022205   0.012485  -0.040359   0.093477
   37  C  8  S   -0.268115  -0.131698  -0.102721   0.244192  -0.573982
   38  C  8  X    0.207201   0.030153  -0.185839  -0.175516   0.112474
   39  C  8  Y   -0.060790  -0.029444  -0.175216   0.031231  -0.282142
   40  C  8  Z   -0.151430   0.016554   0.479066   0.297126   0.007562
   41  C  9  S   -0.114236   0.047253   0.052918   0.079450  -0.096746
   42  C  9  S    0.659049  -0.283398  -0.317249  -0.473586   0.565919
   43  C  9  X   -0.124279   0.084963  -0.245811  -0.122864  -0.035375
   44  C  9  Y   -0.307738   0.039820  -0.087572   0.099669  -0.335679
   45  C  9  Z    0.004605  -0.206273   0.244826   0.172208  -0.005779
   46  O 10  S    0.013261  -0.019994  -0.013328  -0.011652   0.004368
   47  O 10  S   -0.074802   0.132171   0.086217   0.068659  -0.015187
   48  O 10  X    0.049592   0.000786   0.109240   0.042843   0.025665
   49  O 10  Y    0.128614  -0.199814  -0.074741  -0.074261   0.042887
   50  O 10  Z    0.023949   0.007043  -0.103687  -0.060752  -0.018615
   51  H 11  S   -0.242085  -0.115191  -0.220339   0.203411   0.431403
   52  H 12  S    0.206660   0.153951   0.191121  -0.159672  -0.359684
   53  H 13  S   -0.232648   0.184755  -0.262366   0.196130   0.562816
   54  H 14  S    0.405728  -0.136328   0.174759  -0.143856   0.036163
   55  H 15  S   -0.200846   0.449809  -0.184334   0.090300   0.240652
   56  H 16  S   -0.160596   0.519046  -0.077440  -0.308113   0.142541
   57  H 17  S   -0.319154   0.293997   0.054853  -0.601747   0.012014
   58  H 18  S   -0.384321  -0.091496   0.441157  -0.356570   0.103257
   59  H 19  S   -0.268007  -0.043436   0.655281  -0.135995   0.224168
   60  H 20  S    0.095457   0.110793   0.542939   0.076992   0.527453

                     46         47         48         49         50
                    0.6749     0.6872     0.6919     0.7025     0.7183
                     A          A          A          A          A   
    1  C  1  S   -0.000583   0.027686   0.068751   0.188162   0.009661
    2  C  1  S    0.002399  -0.157539  -0.455167  -1.207500  -0.074900
    3  C  1  X    0.116454  -0.005610  -0.069941  -0.046850  -0.032369
    4  C  1  Y    0.014263  -0.110306  -0.244590   0.141542   0.118891
    5  C  1  Z    0.057461  -0.110931   0.144868   0.459566   0.195864
    6  C  2  S    0.022364  -0.129695   0.026087  -0.068404   0.084119
    7  C  2  S   -0.137303   0.817004  -0.151948   0.389249  -0.546395
    8  C  2  X   -0.250864  -0.033362   0.007806  -0.013219   0.073330
    9  C  2  Y    0.042135   0.008563  -0.215271   0.028421  -0.001472
   10  C  2  Z   -0.095794   0.307194  -0.215682  -0.050390  -0.192807
   11  C  3  S   -0.088570   0.042712  -0.021004   0.060278  -0.020045
   12  C  3  S    0.502668  -0.244596   0.125765  -0.370966   0.121998
   13  C  3  X    0.858585  -0.016366   0.046086   0.112627  -0.232340
   14  C  3  Y    0.047379   0.430506  -0.126593  -0.010059  -0.352630
   15  C  3  Z    0.235136   0.114508  -0.604637   0.224296   0.067011
   16  C  4  S    0.124186   0.032247   0.093240  -0.030408  -0.034176
   17  C  4  S   -0.719824  -0.204566  -0.556216   0.180006   0.212165
   18  C  4  X    0.685525   0.004173  -0.491499   0.111118  -0.177280
   19  C  4  Y    0.232486  -0.009606   0.158751  -0.066209   0.091581
   20  C  4  Z    0.356425  -0.319145  -0.077145   0.021844   0.105592
   21  C  5  S   -0.044602  -0.039311  -0.133109   0.044115  -0.012911
   22  C  5  S    0.270892   0.251258   0.832904  -0.273639   0.054967
   23  C  5  X   -0.199487   0.088695  -0.196765   0.060744   0.097371
   24  C  5  Y   -0.109830  -0.013112   0.087190  -0.015278   0.123463
   25  C  5  Z   -0.092095  -0.026886   0.253507  -0.051577  -0.200660
   26  C  6  S    0.041744   0.083925   0.024909  -0.024787   0.133400
   27  C  6  S   -0.256788  -0.522329  -0.139905   0.150971  -0.855990
   28  C  6  X    0.076284  -0.028254   0.042898   0.001203  -0.274207
   29  C  6  Y    0.012890  -0.115091   0.022007  -0.001575   0.139803
   30  C  6  Z    0.121442   0.084098  -0.118104  -0.002709   0.206699
   31  C  7  S   -0.037629  -0.102074   0.008713   0.022171  -0.135496
   32  C  7  S    0.234442   0.628904  -0.059407  -0.133986   0.873941
   33  C  7  X   -0.064986   0.076292   0.043754  -0.012926   0.149783
   34  C  7  Y   -0.081613  -0.097702  -0.030524   0.023251  -0.149333
   35  C  7  Z    0.020165   0.017756  -0.014098   0.008201  -0.054983
   36  C  8  S    0.012233   0.118183  -0.010843  -0.022047   0.030705
   37  C  8  S   -0.076886  -0.731402   0.074856   0.139427  -0.180083
   38  C  8  X    0.027404   0.048077  -0.012866   0.000832  -0.096782
   39  C  8  Y    0.058525  -0.171548  -0.048729   0.037383   0.262672
   40  C  8  Z    0.069038  -0.070283   0.004579   0.010874  -0.096106
   41  C  9  S   -0.014774  -0.034748  -0.037300   0.019743  -0.020850
   42  C  9  S    0.093016   0.204874   0.221902  -0.116501   0.132649
   43  C  9  X   -0.194211   0.278536  -0.029226  -0.027565   0.059034
   44  C  9  Y    0.031592  -0.005078  -0.088243   0.016339   0.120972
   45  C  9  Z   -0.039067  -0.326451   0.202331   0.024421   0.001684
   46  O 10  S    0.009116  -0.001843   0.011495  -0.003948   0.015593
   47  O 10  S   -0.063163   0.019653  -0.075711   0.025231  -0.108602
   48  O 10  X    0.065201  -0.076582  -0.015076   0.013857  -0.047639
   49  O 10  Y    0.074219  -0.065447   0.115746  -0.027904   0.115291
   50  O 10  Z    0.055955   0.066254  -0.046708  -0.011355   0.055893
   51  H 11  S    0.036048  -0.035849   0.035513   0.862484   0.185057
   52  H 12  S   -0.005670   0.101135   0.503705   0.778151   0.071394
   53  H 13  S    0.098103  -0.589909   0.060036  -0.189968   0.380961
   54  H 14  S    0.016465  -0.075621  -0.414792   0.309623   0.158579
   55  H 15  S    0.146655  -0.020525   0.390999   0.096908  -0.213417
   56  H 16  S    0.055686   0.399906   0.231821  -0.090849  -0.220171
   57  H 17  S   -0.175301  -0.116847  -0.543339   0.170236   0.163997
   58  H 18  S    0.117065   0.210548   0.073998  -0.085515   0.691054
   59  H 19  S   -0.085710  -0.382397  -0.015428   0.086915  -0.571918
   60  H 20  S    0.040205   0.455094   0.005623  -0.093003  -0.123224

                     51         52         53         54         55
                    0.7406     0.7831     0.7977     0.8486     0.9145
                     A          A          A          A          A   
    1  C  1  S   -0.044067  -0.006525   0.020221   0.001191   0.005165
    2  C  1  S    0.301753   0.041051  -0.137041  -0.007023  -0.039808
    3  C  1  X    0.073203  -0.014112   0.001194   0.014651   0.002104
    4  C  1  Y    0.079873   0.248426   0.012806   0.141387  -0.073627
    5  C  1  Z   -0.105423   0.257196  -0.084698   0.001862  -0.054136
    6  C  2  S   -0.026515   0.074850  -0.038248  -0.002359  -0.007342
    7  C  2  S    0.163448  -0.504042   0.258284   0.014571   0.055407
    8  C  2  X   -0.099664   0.026856   0.027774   0.002095   0.008174
    9  C  2  Y    0.086233   0.014943  -0.023658  -0.058960   0.032441
   10  C  2  Z    0.172238  -0.040581   0.009715   0.038615  -0.057608
   11  C  3  S    0.155981  -0.081064  -0.079302  -0.019193   0.010864
   12  C  3  S   -0.992649   0.509192   0.518886   0.128635  -0.071965
   13  C  3  X    0.312460  -0.329184  -0.157339  -0.113351   0.064353
   14  C  3  Y   -0.328297  -0.206522   0.471719   0.047055   0.013303
   15  C  3  Z    0.182638   0.519568  -0.033431   0.081943  -0.059732
   16  C  4  S    0.048067   0.078531   0.084819  -0.026647  -0.045548
   17  C  4  S   -0.315930  -0.501403  -0.529637   0.168471   0.299080
   18  C  4  X   -0.202755   0.043963   0.066856   0.222969   0.007189
   19  C  4  Y   -0.090624   0.199436  -0.621494  -0.156453   0.009885
   20  C  4  Z   -0.342501  -0.511359  -0.009609  -0.218544   0.349415
   21  C  5  S   -0.041327  -0.075180   0.044972  -0.024861  -0.050054
   22  C  5  S    0.266375   0.506898  -0.305679   0.174582   0.375074
   23  C  5  X    0.085908  -0.027191   0.140830   0.158107   0.310709
   24  C  5  Y    0.070646   0.043832   0.082395  -0.583465  -0.313691
   25  C  5  Z    0.004046  -0.005040  -0.163883   0.298864  -0.211297
   26  C  6  S    0.042792  -0.000571   0.030144   0.049505   0.057632
   27  C  6  S   -0.279205   0.002611  -0.208229  -0.332562  -0.436874
   28  C  6  X   -0.002020   0.278061  -0.098241  -0.193667   0.073212
   29  C  6  Y   -0.005789  -0.151241  -0.013525   0.314796   0.440189
   30  C  6  Z   -0.049473  -0.197448   0.130797  -0.046901  -0.365986
   31  C  7  S    0.000165   0.027540  -0.005863   0.045445   0.077251
   32  C  7  S    0.002900  -0.192158   0.041693  -0.306071  -0.570145
   33  C  7  X    0.099552   0.058076   0.136499  -0.287032   0.291277
   34  C  7  Y   -0.198626  -0.093062  -0.324633   0.033180  -0.357858
   35  C  7  Z   -0.016776  -0.074820  -0.041613   0.480152  -0.313271
   36  C  8  S   -0.086034  -0.013447  -0.099378  -0.012645  -0.052253
   37  C  8  S    0.567098   0.092914   0.673219   0.085214   0.394858
   38  C  8  X   -0.055781   0.043342   0.010521   0.221146   0.288752
   39  C  8  Y    0.148060  -0.215053   0.175126   0.285398  -0.454893
   40  C  8  Z    0.014278   0.107638   0.003300  -0.591276  -0.044274
   41  C  9  S    0.027612   0.045283  -0.017551  -0.043733   0.065393
   42  C  9  S   -0.163464  -0.292315   0.104739   0.287698  -0.434707
   43  C  9  X   -0.108433   0.059278  -0.397274   0.159635   0.098820
   44  C  9  Y   -0.081733  -0.101851  -0.392875   0.136721  -0.584883
   45  C  9  Z    0.366323  -0.073448   0.468272  -0.196963  -0.342888
   46  O 10  S   -0.002263  -0.023546  -0.006898   0.015549  -0.071041
   47  O 10  S    0.014101   0.166576   0.052057  -0.109388   0.521421
   48  O 10  X    0.024557   0.024417   0.120827  -0.070628   0.104821
   49  O 10  Y    0.021014  -0.189936   0.017786   0.091268  -0.535828
   50  O 10  Z   -0.117417  -0.068561  -0.157153   0.097796  -0.160413
   51  H 11  S   -0.090704   0.251842   0.048376   0.112971  -0.052514
   52  H 12  S   -0.301955  -0.023444   0.027288  -0.075896   0.026924
   53  H 13  S   -0.155571   0.267500  -0.116242  -0.047225   0.027950
   54  H 14  S    0.807194   0.173633  -0.527258  -0.043926   0.008034
   55  H 15  S    0.500188  -0.738344  -0.323383  -0.160537   0.099588
   56  H 16  S    0.386654   0.627197   0.356695   0.165734  -0.334842
   57  H 17  S   -0.085913  -0.204809   0.271338  -0.562553  -0.177270
   58  H 18  S    0.125757  -0.256528   0.132186   0.424755   0.369519
   59  H 19  S   -0.091772  -0.012535  -0.156025   0.561185  -0.161628
   60  H 20  S   -0.345846   0.151969  -0.392786  -0.546366   0.064959

                     56         57         58         59         60
                    0.9412     0.9768     1.0246     1.0500     1.1410
                     A          A          A          A          A   
    1  C  1  S   -0.008966  -0.005820  -0.017947   0.110855  -0.006865
    2  C  1  S    0.063018   0.046041   0.143503  -0.895229   0.057369
    3  C  1  X   -0.171500  -0.043187  -0.015334   0.163774  -0.006997
    4  C  1  Y   -0.878141  -0.163283   0.092858  -0.241593   0.019858
    5  C  1  Z    0.233893   0.094263   0.160249  -1.073691   0.061205
    6  C  2  S    0.016281   0.003567   0.019782  -0.104489   0.006336
    7  C  2  S   -0.141756  -0.038475  -0.155934   0.851314  -0.050148
    8  C  2  X    0.156387   0.031429  -0.042147   0.171421  -0.019873
    9  C  2  Y    0.883118   0.217371  -0.042803  -0.206357  -0.001435
   10  C  2  Z   -0.139564   0.026977   0.180770  -1.139243   0.076038
   11  C  3  S    0.055923   0.009222  -0.002194  -0.011106   0.001960
   12  C  3  S   -0.366017  -0.062445   0.008773   0.070827  -0.013235
   13  C  3  X   -0.002323  -0.015132   0.064825  -0.060495   0.025088
   14  C  3  Y    0.277155   0.112729  -0.048967  -0.224357   0.020852
   15  C  3  Z    0.295001   0.114717  -0.064962   0.270093  -0.069840
   16  C  4  S    0.004544  -0.002938   0.032562   0.011376   0.016742
   17  C  4  S   -0.032292   0.011910  -0.219840  -0.076149  -0.111879
   18  C  4  X    0.008950   0.148174  -0.170002   0.000947  -0.161912
   19  C  4  Y   -0.047705  -0.141510   0.286358   0.087924  -0.072067
   20  C  4  Z   -0.059673  -0.177209   0.071797  -0.048351   0.230752
   21  C  5  S    0.001176   0.036379   0.052777   0.003433  -0.069290
   22  C  5  S   -0.005649  -0.275128  -0.448653  -0.029809   0.571372
   23  C  5  X    0.030461  -0.166978  -0.611864  -0.087696   0.379400
   24  C  5  Y    0.051746  -0.392471   0.335206   0.057156   0.107084
   25  C  5  Z   -0.064149   0.544131   0.424672   0.068335  -0.536403
   26  C  6  S    0.016119  -0.074577  -0.048136  -0.007760   0.058746
   27  C  6  S   -0.112098   0.554273   0.416259   0.066557  -0.480573
   28  C  6  X    0.047584  -0.370483  -0.391912  -0.030292   0.561781
   29  C  6  Y   -0.150782   0.522001  -0.268678  -0.063316  -0.302210
   30  C  6  Z    0.060207   0.004311   0.699079   0.078448  -0.476442
   31  C  7  S    0.007382  -0.043507  -0.032191  -0.013712  -0.069706
   32  C  7  S   -0.061442   0.371860   0.231185   0.106066   0.576546
   33  C  7  X   -0.043079   0.005446  -0.045767  -0.057213  -0.485922
   34  C  7  Y   -0.166389   0.700184  -0.256849   0.047942   0.648151
   35  C  7  Z    0.192577  -0.461814   0.269993   0.059273   0.304219
   36  C  8  S   -0.011094   0.045118  -0.000196   0.009085   0.071711
   37  C  8  S    0.090590  -0.371654   0.015926  -0.071656  -0.596433
   38  C  8  X    0.115564  -0.412502   0.176476  -0.012323  -0.223200
   39  C  8  Y   -0.026891   0.463900   0.218156   0.121350   0.802403
   40  C  8  Z   -0.174121   0.409553  -0.385832  -0.048200  -0.086756
   41  C  9  S   -0.015017   0.061023   0.038881   0.011679   0.015307
   42  C  9  S    0.102019  -0.412420  -0.267004  -0.080728  -0.109952
   43  C  9  X    0.044441  -0.082995   0.247588   0.044679   0.045453
   44  C  9  Y    0.018856  -0.262479  -0.627940  -0.106343  -0.550312
   45  C  9  Z   -0.050206   0.165602  -0.365646  -0.062893  -0.065954
   46  O 10  S    0.003879  -0.029817  -0.064251  -0.011986  -0.040320
   47  O 10  S   -0.027015   0.218294   0.486290   0.091081   0.313811
   48  O 10  X   -0.014539   0.056125   0.051557   0.010403   0.054824
   49  O 10  Y    0.022779  -0.202225  -0.485885  -0.091630  -0.286540
   50  O 10  Z    0.020752  -0.127802  -0.147299  -0.026719  -0.123724
   51  H 11  S   -0.595732  -0.107428   0.050120  -0.103613   0.007556
   52  H 12  S    0.584254   0.120281  -0.020247  -0.103431   0.000172
   53  H 13  S    0.615024   0.123718  -0.060430   0.143084  -0.020411
   54  H 14  S    0.127712   0.028420   0.003676   0.207906  -0.026290
   55  H 15  S   -0.058618  -0.056464   0.057490  -0.155359   0.042879
   56  H 16  S    0.057018   0.148261  -0.026203   0.045101  -0.091409
   57  H 17  S    0.052699  -0.384731   0.070009  -0.000699   0.127808
   58  H 18  S   -0.067074   0.269583  -0.085251  -0.038374  -0.238286
   59  H 19  S    0.128120  -0.292772   0.058371   0.025976   0.227084
   60  H 20  S   -0.113731   0.112790  -0.297617  -0.056819  -0.210235

 THE NUCLEAR REPULSION AT THE IRC POINT IS      495.1968016329

 * * * IRC RESTART INFORMATION * * *
 COORDINATES FOR $DATA AND ENTIRE $IRC GROUP FOLLOW

 COORDINATES OF SYMMETRY UNIQUE ATOMS (ANGS)
   ATOM   CHARGE       X              Y              Z
 ------------------------------------------------------------
 C           6.0  -5.2347384445   0.3216369557  -1.0642920104
 C           6.0  -5.4236309359   0.6004935510   0.2005615175
 C           6.0  -5.3041755816   1.9974173234   0.8043842853
 C           6.0  -3.8834434179   2.3141310760   1.4286549956
 C           6.0  -2.9292703517   1.1275639226   1.3152976300
 C           6.0  -2.0524022318   1.0246313117   0.3391897942
 C           6.0  -1.9084395634   2.0971971099  -0.6798546432
 C           6.0  -2.4830711849   3.2742863086  -0.5201633393
 C           6.0  -3.2969532424   3.5654886544   0.7211961734
 O           8.0  -3.4955938092   4.7005270971   1.1295453338
 H           1.0  -5.3158638820  -0.6864574690  -1.4465147256
 H           1.0  -4.9889006493   1.0831103054  -1.7920300099
 H           1.0  -5.6617449956  -0.1937562398   0.8995998451
 H           1.0  -5.5226548442   2.7331120523   0.0335954461
 H           1.0  -6.0562167917   2.1172210513   1.5814775600
 H           1.0  -4.0239947417   2.5621650590   2.4801860049
 H           1.0  -3.0391188411   0.3438928624   2.0556174644
 H           1.0  -1.4077169459   0.1600223394   0.2497229590
 H           1.0  -1.2895150117   1.8874453368  -1.5450470155
 H           1.0  -2.3489709643   4.0848611730  -1.2249434383
 $IRC   PACE=GS2        STRIDE= 0.10000   NPOINT=??
        STOTAL=  9.998395   NEXTPT= 101
        NPRT= 0   NPUN= 0   SADDLE=.FALSE.
        GA(   1)= 2.115886695E-03,-7.898744715E-05, 2.551372295E-04
        GA(   4)=-1.602232736E-04, 2.520418572E-04,-1.485097041E-04
        GA(   7)=-1.063279578E-04, 2.077281014E-04,-6.813664650E-05
        GA(  10)=-1.604343234E-04, 9.616793434E-05, 1.459420925E-04
        GA(  13)=-1.719793084E-04, 7.811019445E-05, 1.470997882E-04
        GA(  16)=-5.754357203E-04,-1.260305199E-04,-1.970474385E-04
        GA(  19)=-1.054230502E-03,-3.004476766E-04,-4.995005004E-04
        GA(  22)=-7.985228007E-04,-1.896633818E-04,-3.354722292E-04
        GA(  25)=-1.212943282E-05, 4.037325268E-06, 1.432562439E-04
        GA(  28)= 9.146435327E-04, 5.984403320E-05, 6.049654350E-04
        GA(  31)= 1.713097560E-04,-9.449262722E-06, 2.098347814E-05
        GA(  34)= 3.500791984E-04,-2.437373189E-05, 4.524197133E-05
        GA(  37)=-1.944246292E-04, 2.345944265E-05,-2.018557605E-05
        GA(  40)= 9.027510586E-06, 2.218131075E-05,-2.909055945E-06
        GA(  43)=-2.044687118E-05, 2.157137779E-05,-9.194424348E-06
        GA(  46)=-2.250643279E-05, 9.676554446E-06, 1.668793026E-05
        GA(  49)= 1.178491641E-05, 2.823055234E-05, 2.207302095E-05
        GA(  52)=-5.823400726E-05,-9.382095884E-07,-2.607464787E-05
        GA(  55)=-1.456979975E-04,-4.074242874E-05,-5.978141002E-05
        GA(  58)=-9.213839781E-05,-3.241596842E-05,-3.457555855E-05
 $END   
 A GS2 RESTART ALSO REQUIRES THE UPDATED $HESS GROUP FROM THE PUNCH FILE
 ......DONE WITH THIS PORTION OF THE IRC......
 STEP CPU TIME =     0.01 TOTAL CPU TIME =        215.1 (      3.6 MIN)
 TOTAL WALL CLOCK TIME=        217.4 SECONDS, CPU UTILIZATION IS    98.96%
               580000  WORDS OF DYNAMIC MEMORY USED
 EXECUTION OF GAMESS TERMINATED NORMALLY Sat Nov 13 14:12:21 2021
 DDI: 263640 bytes (0.3 MB / 0 MWords) used by master data server.

 ----------------------------------------
 CPU timing information for all processes
 ========================================
 0: 198.637 + 16.485 = 215.123
 ----------------------------------------
 ddikick.x: exited gracefully.
----- accounting info -----
Files used on the master node chemcompute-node-0.novalocal were:
-rw-r--r--. 1 chemcomp chemcomp    60520 Nov 13 14:08 /scratch/305952/341850.F05
-rw-rw-r--. 1 chemcomp chemcomp 17281536 Nov 13 14:12 /scratch/305952/341850.F08
-rw-rw-r--. 1 chemcomp chemcomp 52428800 Nov 13 14:12 /scratch/305952/341850.F10
Sat Nov 13 14:12:24 UTC 2021
0.119u 0.097s 3:40.93 0.0%	0+0k 128+328io 0pf+0w
Finishing Up...
Looking for IR data...
Looking for Raman data...
vibramans not found
Looking for thermodynamics data...
Looking for UV-Vis data...
305952
