----- GAMESS execution script 'rungms' -----
This job is running on host chemcompute-node-0.novalocal
under operating system Linux at Sat Nov 13 16:38:24 UTC 2021
SLURM has assigned the following compute nodes to this run:
chemcompute-node-0
Available scratch disk space (Kbyte units) at beginning of the job is
Filesystem     1K-blocks     Used Available Use% Mounted on
/dev/sda1       62903276 16595840  46307436  27% /
GAMESS temporary binary files will be written to /scratch/306030
GAMESS supplementary output files will be written to /data/slurm/341932
Copying input file 341932.inp to your run's scratch directory...
The generated host list is
chemcompute-node-0.novalocal

 Distributed Data Interface kickoff program.
 Initiating 1 compute processes on 1 nodes to run the following command:
 /data/gamess-2019R1-ddi/gamess.00.x 341932 

          ******************************************************
          *         GAMESS VERSION = 30 JUN 2019 (R1)          *
          *             FROM IOWA STATE UNIVERSITY             *
          * M.W.SCHMIDT, K.K.BALDRIDGE, J.A.BOATZ, S.T.ELBERT, *
          *   M.S.GORDON, J.H.JENSEN, S.KOSEKI, N.MATSUNAGA,   *
          *          K.A.NGUYEN, S.J.SU, T.L.WINDUS,           *
          *       TOGETHER WITH M.DUPUIS, J.A.MONTGOMERY       *
          *         J.COMPUT.CHEM.  14, 1347-1363(1993)        *
          **************** 64 BIT LINUX VERSION ****************

  SINCE 1993, STUDENTS AND POSTDOCS WORKING AT IOWA STATE UNIVERSITY
  AND ALSO IN THEIR VARIOUS JOBS AFTER LEAVING ISU HAVE MADE IMPORTANT
  CONTRIBUTIONS TO THE CODE:
     IVANA ADAMOVIC, CHRISTINE AIKENS, YURI ALEXEEV, POOJA ARORA,
     ANDREY ASADCHEV, ROB BELL, PRADIPTA BANDYOPADHYAY, JONATHAN BENTZ,
     COLLEEN BERTONI, BRETT BODE, KURT BRORSEN, CALEB CARLIN, GALINA CHABAN,
     WEI CHEN, CHEOL HO CHOI, PAUL DAY, ALBERT DEFUSCO, NUWAN DESILVA,
     TIM DUDLEY, DMITRI FEDOROV, ALEX FINDLATER, GRAHAM FLETCHER, 
     MARK FREITAG, KURT GLAESEMANN, ANASTASIA GUNINA,
     DAN KEMP, GRANT MERRILL, NORIYUKI MINEZAWA, JONATHAN MULLIN,
     TAKESHI NAGATA, SEAN NEDD, HEATHER NETZLOFF, BOSILJKA NJEGIC, RYAN OLSON,
     MIKE PAK, BUU PHAM,
     SPENCER PRUITT, LUKE ROSKOP, JIM SHOEMAKER, LYUDMILA SLIPCHENKO,
     TONY SMITH, SAROM SOK LEANG, JIE SONG, TETSUYA TAKETSUGU, SIMON WEBB,
     PENG XU, SOOHAENG YOO, FEDERICO ZAHARIEV

  ADDITIONAL CODE HAS BEEN PROVIDED BY COLLABORATORS IN OTHER GROUPS:
     IOWA STATE UNIVERSITY:
          JOE IVANIC, AARON WEST, LAIMUTIS BYTAUTAS, KLAUS RUEDENBERG
     UNIVERSITY OF TOKYO: KIMIHIKO HIRAO, TAKAHITO NAKAJIMA,
          TAKAO TSUNEDA, MUNEAKI KAMIYA, SUSUMU YANAGISAWA,
          KIYOSHI YAGI, MAHITO CHIBA, SEIKEN TOKURA, NAOAKI KAWAKAMI
     UNIVERSITY OF AARHUS: FRANK JENSEN
     UNIVERSITY OF IOWA: VISVALDAS KAIRYS, HUI LI
     NATIONAL INST. OF STANDARDS AND TECHNOLOGY: WALT STEVENS, DAVID GARMER
     UNIVERSITY OF PISA: BENEDETTA MENNUCCI, JACOPO TOMASI
     UNIVERSITY OF MEMPHIS: HENRY KURTZ, PRAKASHAN KORAMBATH
     UNIVERSITY OF ALBERTA: TOBY ZENG, MARIUSZ KLOBUKOWSKI
     UNIVERSITY OF NEW ENGLAND: MARK SPACKMAN
     MIE UNIVERSITY: HIROAKI UMEDA
     NAT. INST. OF ADVANCED INDUSTRIAL SCIENCE AND TECHNOLOGY: KAZUO KITAURA
     MICHIGAN STATE UNIVERSITY:
          KAROL KOWALSKI, MARTA WLOCH, JEFFREY GOUR, JESSE LUTZ,
          WEI LI, JUN SHEN, J. EMILIANO DEUSTUA, PIOTR PIECUCH
     UNIVERSITY OF MINNESOTA:
          YINAN SHU
     UNIVERSITY OF SILESIA: MONIKA MUSIAL, STANISLAW KUCHARSKI
     FACULTES UNIVERSITAIRES NOTRE-DAME DE LA PAIX:
          OLIVIER QUINET, BENOIT CHAMPAGNE
     UNIVERSITY OF CALIFORNIA - SANTA BARBARA: BERNARD KIRTMAN
     INSTITUTE FOR MOLECULAR SCIENCE:
          KAZUYA ISHIMURA, MICHIO KATOUDA, AND SHIGERU NAGASE
     UNIVERSITY OF NOTRE DAME: ANNA POMOGAEVA, DAN CHIPMAN
     KYUSHU UNIVERSITY:
          HARUYUKI NAKANO,
          FENG LONG GU, JACEK KORCHOWIEC, MARCIN MAKOWSKI, AND YURIKO AOKI,
          HIROTOSHI MORI AND EISAKU MIYOSHI
     PENNSYLVANIA STATE UNIVERSITY:
          TZVETELIN IORDANOV, CHET SWALINA, JONATHAN SKONE,
          SHARON HAMMES-SCHIFFER
     WASEDA UNIVERSITY:
          MASATO KOBAYASHI, TOMOKO AKAMA, TSUGUKI TOUMA,
          TAKESHI YOSHIKAWA, YASUHIRO IKABATA, JUNJI SEINO,
          YUYA NAKAJIMA, HIROMI NAKAI
     NANJING UNIVERSITY: SHUHUA LI
     UNIVERSITY OF NEBRASKA:
          PEIFENG SU, DEJUN SI, NANDUN THELLAMUREGE, YALI WANG, HUI LI
     UNIVERSITY OF ZURICH: ROBERTO PEVERATI, KIM BALDRIDGE
     N. COPERNICUS UNIVERSITY AND JACKSON STATE UNIVERSITY:
          MARIA BARYSZ
     UNIVERSITY OF COPENHAGEN: Jimmy Kromann, CASPER STEINMANN
     TOKYO INSTITUTE OF TECHNOLOGY: HIROYA NAKATA
     NAGOYA UNIVERSITY: YOSHIO NISHIMOTO, STEPHAN IRLE
     MOSCOW STATE UNIVERSITY: VLADIMIR MIRONOV
     A.N.NESMEYANOV INSTITUTE OF ORGANOELEMENT COMPOUNDS OF RUSSIAN ACADEMY OF SCIENCES:
          IGOR S. GERASIMOV

 EXECUTION OF GAMESS BEGUN Sat Nov 13 16:38:26 2021

            ECHO OF THE FIRST FEW INPUT CARDS -
 INPUT CARD>!File created by the GAMESS Input Deck Generator Plugin for Avogadro            
 INPUT CARD> $BASIS GBASIS=STO NGAUSS=3 $END                                                
 INPUT CARD> $CONTRL SCFTYP=RHF RUNTYP=OPTIMIZE NZVAR=1 mult=1  ICHARG=0 $END               
 INPUT CARD> $STATPT hssend=.t. OPTTOL=0.0005 NSTEP=50 $END                                 
 INPUT CARD> $STATPT HESS=calc ihrep=5 $END                                                 
 INPUT CARD> $FORCE nvib=2 $END                                                             
 INPUT CARD> $ZMAT DLC=.t. auto=.t. nonvdw(1)=6,16,9,16 $END                                
 INPUT CARD> $ZMAT IFZMAT(1)=1,6,16,1,9,16 fvalue(1)=3.97,4.01 $END                         
 INPUT CARD>                                                                                
 INPUT CARD> $DATA                                                                          
 INPUT CARD>Title                                                                           
 INPUT CARD>C1                                                                              
 INPUT CARD>C     6.0    -1.93591     2.94461    -0.01066                                   
 INPUT CARD>C     6.0    -0.67939     2.07950    -0.19180                                   
 INPUT CARD>C     6.0    -3.08379     1.93892     0.16532                                   
 INPUT CARD>H     1.0    -2.05054     3.58393    -0.91315                                   
 INPUT CARD>H     1.0    -1.89580     3.58812     0.89521                                   
 INPUT CARD>C     6.0    -2.50724     0.61384    -0.30650                                   
 INPUT CARD>H     1.0    -4.05260     2.24731    -0.28082                                   
 INPUT CARD>H     1.0    -3.24853     1.81575     1.26136                                   
 INPUT CARD>C     6.0    -1.09869     0.69383     0.27183                                   
 INPUT CARD>H     1.0     0.24731     2.49523     0.25668                                   
 INPUT CARD>H     1.0    -0.50161     1.98266    -1.28844                                   
 INPUT CARD>H     1.0    -2.45517     0.60143    -1.41940                                   
 INPUT CARD>H     1.0    -3.08989    -0.26736     0.03636                                   
 INPUT CARD>H     1.0    -1.14857     0.66872     1.38462                                   
 INPUT CARD>H     1.0    -0.41813    -0.11178    -0.07623                                   
 INPUT CARD>Br    35.0    -1.70087    -3.26176    -0.04496                                  
 INPUT CARD>H     1.0    -0.25699    -2.77771     0.08951                                   
 INPUT CARD> $END                                                                           
    1000000 WORDS OF MEMORY AVAILABLE

     BASIS OPTIONS
     -------------
     GBASIS=STO          IGAUSS=       3      POLAR=NONE    
     NDFUNC=       0     NFFUNC=       0     DIFFSP=       F
     NPFUNC=       0      DIFFS=       F     BASNAM=        


     RUN TITLE
     ---------
 Title                                                                           

 THE POINT GROUP OF THE MOLECULE IS C1      
 THE ORDER OF THE PRINCIPAL AXIS IS     0

 ATOM      ATOMIC                      COORDINATES (BOHR)
           CHARGE         X                   Y                   Z
 C           6.0    -3.6583394369        5.5645060407       -0.0201444790
 C           6.0    -1.2838609388        3.9296851915       -0.3624494444
 C           6.0    -5.8275181037        3.6640275121        0.3124095003
 H           1.0    -3.8749587269        6.7726456592       -1.7256032857
 H           1.0    -3.5825425275        6.7805636111        1.6917016015
 C           6.0    -4.7379965855        1.1599894003       -0.5792010152
 H           1.0    -7.6583035378        4.2468001095       -0.5306728519
 H           1.0    -6.1388315629        3.4312699622        2.3836247719
 C           6.0    -2.0762230455        1.3111485821        0.5136842152
 H           1.0     0.4673481340        4.7153009763        0.4850548665
 H           1.0    -0.9479054527        3.7466841268       -2.4347985516
 H           1.0    -4.6395985533        1.1365379008       -2.6822770670
 H           1.0    -5.8390454322       -0.5052371401        0.0687104369
 H           1.0    -2.1704825777        1.2636975625        2.6165523971
 H           1.0    -0.7901511272       -0.2112335709       -0.1440538120
 BR         35.0    -3.2141782407       -6.1638326377       -0.0849620804
 H           1.0    -0.4856406816       -5.2491107734        0.1691493732

          INTERNUCLEAR DISTANCES (ANGS.)
          ------------------------------

                1 C          2 C          3 C          4 H          5 H     

   1 C       0.0000000    1.5362518 *  1.5362323 *  1.1119165 *  1.1118968 *
   2 C       1.5362518 *  0.0000000    2.4348381 *  2.1595619 *  2.2219762 *
   3 C       1.5362323 *  2.4348381 *  0.0000000    2.2218823 *  2.1596111 *
   4 H       1.1119165 *  2.1595619 *  2.2218823 *  0.0000000    1.8149733 *
   5 H       1.1118968 *  2.2219762 *  2.1596111 *  1.8149733 *  0.0000000  
   6 C       2.4179388 *  2.3457091 *  1.5201516 *  3.0656213    3.2656251  
   7 H       2.2449032 *  3.3785545    1.1102874 *  2.4889031 *  2.7986790 *
   8 H       2.1483322 *  2.9633964 *  1.1151743 *  3.0479722    2.2594777 *
   9 C       2.4180051 *  1.5201469 *  2.3456802 *  3.2654056    3.0660890  
  10 H       2.2449638 *  1.1102876 *  3.3784693    2.7989077 *  2.4889857 *
  11 H       2.1483217 *  1.1151695 *  2.9636101 *  2.2592238 *  3.0478837  
  12 H       2.7829251 *  2.6163118 *  2.1668826 *  3.0521010    3.8197685  
  13 H       3.4133022    3.3719904    2.2100541 *  4.1005185    4.1265240  
  14 H       2.7832330 *  2.1669172 *  2.6163289 *  3.8199144    3.0529938  
  15 H       3.4131328    2.2098238 *  3.3718630    4.1259508    4.1007883  
  16 BR      6.2109137    5.4400406    5.3855137    6.9093773    6.9168471  
  17 H       5.9643736    4.8836509    5.4993767    6.6852533    6.6225858  

                6 C          7 H          8 H          9 C         10 H     

   1 C       2.4179388 *  2.2449032 *  2.1483322 *  2.4180051 *  2.2449638 *
   2 C       2.3457091 *  3.3785545    2.9633964 *  1.5201469 *  1.1102876 *
   3 C       1.5201516 *  1.1102874 *  1.1151743 *  2.3456802 *  3.3784693  
   4 H       3.0656213    2.4889031 *  3.0479722    3.2654056    2.7989077 *
   5 H       3.2656251    2.7986790 *  2.2594777 *  3.0660890    2.4889857 *
   6 C       0.0000000    2.2487822 *  2.1100435 *  1.5247548 *  3.3829493  
   7 H       2.2487822 *  0.0000000    1.7919519 *  3.3829435    4.3404604  
   8 H       2.1100435 *  1.7919519 *  0.0000000    2.6191003 *  3.7002665  
   9 C       1.5247548 *  3.3829435    2.6191003 *  0.0000000    2.2487747 *
  10 H       3.3829493    4.3404604    3.7002665    2.2487747 *  0.0000000  
  11 H       2.6192415 *  3.7006577    3.7516541    2.1099834 *  1.7919277 *
  12 H       1.1141866 *  2.5606773 *  3.0480268    2.1699849 *  3.7012323  
  13 H       1.1106518 *  2.7112689 *  2.4218049 *  2.2235579 *  4.3378968  
  14 H       2.1699960 *  3.7012197    2.3959764 *  1.1141903 *  2.5606383 *
  15 H       2.2234948 *  4.3378030    3.6763682    1.1105472 *  2.7111143 *
  16 BR      3.9672297    5.9946740    5.4665191    4.0136852    6.0851726  
  17 H       4.0893839    6.3082982    5.6055703    3.5767708    5.2996378  

               11 H         12 H         13 H         14 H         15 H     

   1 C       2.1483217 *  2.7829251 *  3.4133022    2.7832330 *  3.4131328  
   2 C       1.1151695 *  2.6163118 *  3.3719904    2.1669172 *  2.2098238 *
   3 C       2.9636101 *  2.1668826 *  2.2100541 *  2.6163289 *  3.3718630  
   4 H       2.2592238 *  3.0521010    4.1005185    3.8199144    4.1259508  
   5 H       3.0478837    3.8197685    4.1265240    3.0529938    4.1007883  
   6 C       2.6192415 *  1.1141866 *  1.1106518 *  2.1699960 *  2.2234948 *
   7 H       3.7006577    2.5606773 *  2.7112689 *  3.7012197    4.3378030  
   8 H       3.7516541    3.0480268    2.4218049 *  2.3959764 *  3.6763682  
   9 C       2.1099834 *  2.1699849 *  2.2235579 *  1.1141903 *  1.1105472 *
  10 H       1.7919277 *  3.7012323    4.3378968    2.5606383 *  2.7111143 *
  11 H       0.0000000    2.3961101 *  3.6765308    3.0479904    2.4213841 *
  12 H       2.3961101 *  0.0000000    1.8102217 *  3.0942301    2.5421066 *
  13 H       3.6765308    1.8102217 *  0.0000000    2.5421987 *  2.6786532 *
  14 H       3.0479904    3.0942301    2.5421987 *  0.0000000    1.8101949 *
  15 H       2.4213841 *  2.5421066 *  2.6786532 *  1.8101949 *  0.0000000  
  16 BR      5.5216309    4.1692075    3.3018814    4.2186973    3.4012900  
  17 H       4.9618250    4.3043457    3.7854992    3.7881532    2.6759332 *

               16 BR        17 H     

   1 C       6.2109137    5.9643736  
   2 C       5.4400406    4.8836509  
   3 C       5.3855137    5.4993767  
   4 H       6.9093773    6.6852533  
   5 H       6.9168471    6.6225858  
   6 C       3.9672297    4.0893839  
   7 H       5.9946740    6.3082982  
   8 H       5.4665191    5.6055703  
   9 C       4.0136852    3.5767708  
  10 H       6.0851726    5.2996378  
  11 H       5.5216309    4.9618250  
  12 H       4.1692075    4.3043457  
  13 H       3.3018814    3.7854992  
  14 H       4.2186973    3.7881532  
  15 H       3.4012900    2.6759332 *
  16 BR      0.0000000    1.5287825 *
  17 H       1.5287825 *  0.0000000  

  * ... LESS THAN  3.000


     ATOMIC BASIS SET
     ----------------
 THE CONTRACTED PRIMITIVE FUNCTIONS HAVE BEEN UNNORMALIZED
 THE CONTRACTED BASIS FUNCTIONS ARE NOW NORMALIZED TO UNITY

  SHELL TYPE  PRIMITIVE        EXPONENT          CONTRACTION COEFFICIENT(S)

 C         

      1   S       1            71.6168373    0.154328967295
      1   S       2            13.0450963    0.535328142282
      1   S       3             3.5305122    0.444634542185

      2   L       4             2.9412494   -0.099967229187    0.155916274999
      2   L       5             0.6834831    0.399512826089    0.607683718598
      2   L       6             0.2222899    0.700115468880    0.391957393099

 C         

      3   S       7            71.6168373    0.154328967295
      3   S       8            13.0450963    0.535328142282
      3   S       9             3.5305122    0.444634542185

      4   L      10             2.9412494   -0.099967229187    0.155916274999
      4   L      11             0.6834831    0.399512826089    0.607683718598
      4   L      12             0.2222899    0.700115468880    0.391957393099

 C         

      5   S      13            71.6168373    0.154328967295
      5   S      14            13.0450963    0.535328142282
      5   S      15             3.5305122    0.444634542185

      6   L      16             2.9412494   -0.099967229187    0.155916274999
      6   L      17             0.6834831    0.399512826089    0.607683718598
      6   L      18             0.2222899    0.700115468880    0.391957393099

 H         

      7   S      19             3.4252509    0.154328967295
      7   S      20             0.6239137    0.535328142282
      7   S      21             0.1688554    0.444634542185

 H         

      8   S      22             3.4252509    0.154328967295
      8   S      23             0.6239137    0.535328142282
      8   S      24             0.1688554    0.444634542185

 C         

      9   S      25            71.6168373    0.154328967295
      9   S      26            13.0450963    0.535328142282
      9   S      27             3.5305122    0.444634542185

     10   L      28             2.9412494   -0.099967229187    0.155916274999
     10   L      29             0.6834831    0.399512826089    0.607683718598
     10   L      30             0.2222899    0.700115468880    0.391957393099

 H         

     11   S      31             3.4252509    0.154328967295
     11   S      32             0.6239137    0.535328142282
     11   S      33             0.1688554    0.444634542185

 H         

     12   S      34             3.4252509    0.154328967295
     12   S      35             0.6239137    0.535328142282
     12   S      36             0.1688554    0.444634542185

 C         

     13   S      37            71.6168373    0.154328967295
     13   S      38            13.0450963    0.535328142282
     13   S      39             3.5305122    0.444634542185

     14   L      40             2.9412494   -0.099967229187    0.155916274999
     14   L      41             0.6834831    0.399512826089    0.607683718598
     14   L      42             0.2222899    0.700115468880    0.391957393099

 H         

     15   S      43             3.4252509    0.154328967295
     15   S      44             0.6239137    0.535328142282
     15   S      45             0.1688554    0.444634542185

 H         

     16   S      46             3.4252509    0.154328967295
     16   S      47             0.6239137    0.535328142282
     16   S      48             0.1688554    0.444634542185

 H         

     17   S      49             3.4252509    0.154328967295
     17   S      50             0.6239137    0.535328142282
     17   S      51             0.1688554    0.444634542185

 H         

     18   S      52             3.4252509    0.154328967295
     18   S      53             0.6239137    0.535328142282
     18   S      54             0.1688554    0.444634542185

 H         

     19   S      55             3.4252509    0.154328967295
     19   S      56             0.6239137    0.535328142282
     19   S      57             0.1688554    0.444634542185

 H         

     20   S      58             3.4252509    0.154328967295
     20   S      59             0.6239137    0.535328142282
     20   S      60             0.1688554    0.444634542185

 BR        

     21   S      61          2629.9974710    0.154328967295
     21   S      62           479.0573224    0.535328142282
     21   S      63           129.6516070    0.444634542185

     22   L      64           219.8350255   -0.099967229187    0.155916274999
     22   L      65            51.0849322    0.399512826089    0.607683718598
     22   L      66            16.6144055    0.700115468880    0.391957393099

     23   L      67            20.6524416   -0.219620369005    0.010587604289
     23   L      68             5.7619788    0.225595433605    0.595167005266
     23   L      69             2.2551994    0.900398426019    0.462001011973

     24   D      70            22.3657496    0.168659606013
     24   D      71             7.0128139    0.584798481745
     24   D      72             2.7316638    0.405677952331

     25   L      73             1.3960375   -0.308844121382   -0.121546859998
     25   L      74             0.5152256    0.019606411652    0.571522760389
     25   L      75             0.2275291    1.131034441567    0.549894947089

 H         

     26   S      76             3.4252509    0.154328967295
     26   S      77             0.6239137    0.535328142282
     26   S      78             0.1688554    0.444634542185

 TOTAL NUMBER OF BASIS SET SHELLS             =   26
 NUMBER OF CARTESIAN GAUSSIAN BASIS FUNCTIONS =   55
 NUMBER OF ELECTRONS                          =   76
 CHARGE OF MOLECULE                           =    0
 SPIN MULTIPLICITY                            =    1
 NUMBER OF OCCUPIED ORBITALS (ALPHA)          =   38
 NUMBER OF OCCUPIED ORBITALS (BETA )          =   38
 TOTAL NUMBER OF ATOMS                        =   17
 THE NUCLEAR REPULSION ENERGY IS      358.3823515325

     $CONTRL OPTIONS
     ---------------
 SCFTYP=RHF          RUNTYP=OPTIMIZE     EXETYP=RUN     
 MPLEVL=       0     CITYP =NONE         CCTYP =NONE         VBTYP =NONE    
 DFTTYP=NONE         TDDFT =NONE    
 MULT  =       1     ICHARG=       0     NZVAR =       1     COORD =UNIQUE  
 PP    =NONE         RELWFN=NONE         LOCAL =NONE         NUMGRD=       F
 ISPHER=      -1     NOSYM =       0     MAXIT =      30     UNITS =ANGS    
 PLTORB=       F     MOLPLT=       F     AIMPAC=       F     FRIEND=        
 NPRINT=       7     IREST =       0     GEOM  =INPUT   
 NORMF =       0     NORMP =       0     ITOL  =      20     ICUT  =       9
 INTTYP=BEST         GRDTYP=BEST         QMTTOL= 1.0E-06

     $SYSTEM OPTIONS
     ---------------
  REPLICATED MEMORY=     1000000 WORDS (ON EVERY NODE).
 DISTRIBUTED MEMDDI=           0 MILLION WORDS IN AGGREGATE,
 MEMDDI DISTRIBUTED OVER   1 PROCESSORS IS           0 WORDS/PROCESSOR.
 TOTAL MEMORY REQUESTED ON EACH PROCESSOR=     1000000 WORDS.
 TIMLIM=      525600.00 MINUTES, OR     365.0 DAYS.
 PARALL= F  BALTYP=  DLB     KDIAG=    0  COREFL= F
 MXSEQ2=     300 MXSEQ3=     150  mem10=         0

          ----------------
          PROPERTIES INPUT
          ----------------

     MOMENTS            FIELD           POTENTIAL          DENSITY
 IEMOM =       1   IEFLD =       0   IEPOT =       0   IEDEN =       0
 WHERE =COMASS     WHERE =NUCLEI     WHERE =NUCLEI     WHERE =NUCLEI  
 OUTPUT=BOTH       OUTPUT=BOTH       OUTPUT=BOTH       OUTPUT=BOTH    
 IEMINT=       0   IEFINT=       0                     IEDINT=       0
                                                       MORB  =       0
          EXTRAPOLATION IN EFFECT
          SOSCF IN EFFECT
 ORBITAL PRINTING OPTION: NPREO=     1    55     2     1

     -------------------------------
     INTEGRAL TRANSFORMATION OPTIONS
     -------------------------------
     NWORD  =            0
     CUTOFF = 1.0E-09     MPTRAN =       0
     DIRTRF =       F     AOINTS =DUP     

          ----------------------
          INTEGRAL INPUT OPTIONS
          ----------------------
 NOPK  =       1 NORDER=       0 SCHWRZ=       T


 -----------------------------------------------
  STATISTICS ON AUTOMATIC COORDINATE GENERATION 
 -----------------------------------------------
  NUMBER OF USER SPECIFIED BONDS                             2
  NUMBER OF BONDS                                           18
  NUMBER OF ANGLES                                          41
  NUMBER OF TORSIONS                                        71
  NUMBER OF EXTRA COORD.                                     0
  NUMBER OF EXTRA COORD. FOR CONSTRAINTS                     0
  NUMBER OF CONSTRAINED COORD.                               2

  TOTAL NUMBER OF PRIMITIVES                               130
 -----------------------------------------------

   --- ENCODED Z MATRIX ---
 COORD  TYPE   I   J   K   L   M   N
    1      1    6  16
    2      1    9  16
    3      1    1   2
    4      1    1   3
    5      1    1   4
    6      1    1   5
    7      1    2  10
    8      1    2   9
    9      1    2  11
   10      1    3   8
   11      1    3   7
   12      1    3   6
   13      1    6  13
   14      1    6  12
   15      1    6   9
   16      1    9  15
   17      1    9  14
   18      1   16  17
   19      2    1   3   7
   20      2    1   2  10
   21      2    1   2  11
   22      2    1   2   9
   23      2    1   3   6
   24      2    1   3   8
   25      2    2   1   3
   26      2    2   9   6
   27      2    2   9  14
   28      2    2   9  15
   29      2    2   9  16
   30      2    2   1   4
   31      2    2   1   5
   32      2    3   1   4
   33      2    3   6  16
   34      2    3   6   9
   35      2    3   6  12
   36      2    3   6  13
   37      2    3   1   5
   38      2    4   1   5
   39      2    6   3   7
   40      2    6   3   8
   41      2    6  16  17
   42      2    6  16   9
   43      2    6   9  16
   44      2    6   9  14
   45      2    6   9  15
   46      2    7   3   8
   47      2    9   2  11
   48      2    9   6  12
   49      2    9   6  13
   50      2    9   2  10
   51      2    9  16  17
   52      2    9   6  16
   53      2   10   2  11
   54      2   12   6  16
   55      2   12   6  13
   56      2   13   6  16
   57      2   14   9  16
   58      2   14   9  15
   59      2   15   9  16
   60      3    1   2   9  14
   61      3    1   2   9  15
   62      3    1   2   9   6
   63      3    1   3   6  16
   64      3    1   3   6   9
   65      3    1   3   6  12
   66      3    1   3   6  13
   67      3    1   2   9  16
   68      3    2   9  16  17
   69      3    2   9  16   6
   70      3    2   1   3   8
   71      3    2   9   6  16
   72      3    2   9   6  12
   73      3    2   9   6  13
   74      3    2   9   6   3
   75      3    2   1   3   7
   76      3    2   1   3   6
   77      3    3   6  16   9
   78      3    3   1   2  11
   79      3    3   1   2   9
   80      3    3   6   9  16
   81      3    3   6   9  14
   82      3    3   6   9  15
   83      3    3   1   2  10
   84      3    3   6  16  17
   85      3    4   1   3   8
   86      3    4   1   2   9
   87      3    4   1   2  10
   88      3    4   1   3   6
   89      3    4   1   2  11
   90      3    4   1   3   7
   91      3    5   1   3   8
   92      3    5   1   2  10
   93      3    5   1   3   7
   94      3    5   1   2   9
   95      3    5   1   3   6
   96      3    5   1   2  11
   97      3    6   9  16  17
   98      3    6  16   9  14
   99      3    6  16   9  15
  100      3    6   9   2  11
  101      3    6   9   2  10
  102      3    7   3   6  16
  103      3    7   3   6  13
  104      3    7   3   6  12
  105      3    7   3   6   9
  106      3    8   3   6  16
  107      3    8   3   6  13
  108      3    8   3   6  12
  109      3    8   3   6   9
  110      3    9  16   6  12
  111      3    9  16   6  13
  112      3    9   6  16  17
  113      3   10   2   9  16
  114      3   10   2   9  15
  115      3   10   2   9  14
  116      3   11   2   9  16
  117      3   11   2   9  15
  118      3   11   2   9  14
  119      3   12   6   9  15
  120      3   12   6   9  14
  121      3   12   6   9  16
  122      3   12   6  16  17
  123      3   13   6   9  15
  124      3   13   6   9  14
  125      3   13   6   9  16
  126      3   13   6  16  17
  127      3   14   9   6  16
  128      3   14   9  16  17
  129      3   15   9   6  16
  130      3   15   9  16  17

          INDEP./SYM. INTERNAL COORDINATES
          --------------------------------
 CRD  1=   1.0000 (  1)
 CRD  2=   1.0000 (  2)
 CRD  3=  -0.1159 (  7) -0.3079 (  8)  0.1476 ( 11)  0.2971 ( 12) -0.1094 ( 13)
           0.1142 ( 14) -0.1119 ( 17)  0.1337 ( 18) -0.1802 ( 23)  0.1139 ( 25)
           0.1196 ( 29) -0.1043 ( 31) -0.1829 ( 33) -0.1093 ( 36)  0.2661 ( 39)
           0.1165 ( 41) -0.1273 ( 50)  0.1079 ( 51)  0.1022 ( 61)  0.1045 ( 62)
           0.1081 ( 67)  0.1218 ( 71)  0.1030 ( 76) -0.1124 ( 79) -0.1860 ( 80)
          -0.1246 ( 86)  0.1494 ( 88) -0.1164 ( 94)  0.1714 ( 95) -0.1253 (111)
          -0.1063 (121)  0.1243 (128)  0.1684 (130)
 CRD  4=   0.1383 (  4)  0.1159 (  5)  0.1533 (  6) -0.1485 (  7)  0.1316 ( 12)
          -0.3197 ( 15) -0.1003 ( 19)  0.2810 ( 22)  0.2264 ( 23) -0.4094 ( 25)
           0.1219 ( 28)  0.1349 ( 30)  0.1332 ( 31)  0.1728 ( 32)  0.1468 ( 37)
          -0.1748 ( 38) -0.1138 ( 40) -0.2122 ( 41) -0.1825 ( 50) -0.1690 ( 51)
           0.1129 ( 53)  0.1039 ( 74)
 CRD  5=   0.3072 (  3)  0.3373 (  4)  0.1308 (  7)  0.1692 (  8)  0.1735 ( 11)
           0.2482 ( 12)  0.1405 ( 13)  0.3739 ( 15)  0.1570 ( 16)  0.1369 ( 19)
           0.1342 ( 20) -0.1384 ( 30)  0.1214 ( 31)  0.1467 ( 32) -0.1298 ( 37)
           0.1258 ( 47) -0.1325 ( 50) -0.1396 ( 51) -0.1200 ( 60) -0.1345 ( 64)
          -0.1435 ( 65)  0.1127 ( 70)  0.1025 ( 74)  0.1198 ( 78) -0.1118 ( 86)
 CRD  6=   0.5356 (  3) -0.4628 (  4) -0.1078 ( 13)  0.1037 ( 16) -0.1321 ( 19)
           0.1620 ( 20)  0.1115 ( 23)  0.1583 ( 30)  0.2058 ( 31) -0.1736 ( 32)
          -0.1433 ( 37)  0.1544 ( 85)  0.1337 ( 86)  0.1667 ( 87) -0.1521 ( 93)
          -0.1515 ( 95) -0.1673 ( 96)
 CRD  7=   0.1454 (  4) -0.4519 (  8) -0.4490 ( 12)  0.1258 ( 15) -0.1090 ( 16)
           0.1647 ( 19)  0.1350 ( 20) -0.1408 ( 25)  0.1032 ( 32) -0.2152 ( 39)
           0.2166 ( 41) -0.2213 ( 50)  0.2014 ( 51)  0.1027 ( 75)  0.1110 ( 83)
          -0.1007 (120)
 CRD  8=  -0.3389 (  3) -0.3750 (  4) -0.1226 (  5) -0.1107 (  6) -0.1192 (  7)
          -0.1697 ( 15) -0.1865 ( 21) -0.1994 ( 24) -0.2191 ( 30)  0.1498 ( 31)
           0.1501 ( 32) -0.2373 ( 37)  0.1407 ( 40)  0.1703 ( 47) -0.1034 ( 50)
          -0.1025 ( 64)  0.1433 ( 70)  0.1603 ( 74)  0.1495 ( 78) -0.1403 ( 94)
 CRD  9=  -0.2845 (  8) -0.1067 (  9)  0.2683 ( 12)  0.1560 ( 13)  0.1439 ( 14)
          -0.1699 ( 16) -0.1379 ( 17) -0.1736 ( 18)  0.1348 ( 21) -0.1232 ( 24)
          -0.1431 ( 28)  0.1369 ( 36)  0.1766 ( 40)  0.1390 ( 45) -0.1906 ( 47)
          -0.1290 ( 49) -0.1376 ( 56)  0.1501 ( 59) -0.1151 ( 68) -0.1286 ( 75)
          -0.1307 ( 76)  0.1314 ( 79)  0.1263 ( 83) -0.1662 (100)  0.1513 (109)
           0.1625 (119) -0.1614 (124)
 CRD 10=  -0.1018 (  9)  0.2179 ( 10) -0.2808 ( 13)  0.1071 ( 14)  0.2332 ( 16)
          -0.1696 ( 17)  0.1564 ( 19) -0.1096 ( 20)  0.1309 ( 29) -0.1534 ( 33)
          -0.2207 ( 39)  0.1947 ( 40) -0.1278 ( 47)  0.1807 ( 50)  0.1739 ( 54)
          -0.1942 ( 57)  0.1333 ( 71)  0.1155 ( 75)  0.1050 ( 79) -0.1553 ( 80)
           0.1169 ( 86) -0.1942 ( 88)  0.1380 ( 94) -0.1784 ( 95)  0.1014 (102)
          -0.1827 (121) -0.1075 (125)  0.1908 (127)  0.1277 (130)
 CRD 11=   0.2215 (  5) -0.2134 (  6)  0.1218 (  8)  0.2849 ( 18)  0.1182 ( 30)
          -0.1145 ( 37) -0.1847 ( 44)  0.1610 ( 48) -0.1240 ( 57) -0.1400 ( 69)
          -0.1694 ( 70) -0.1867 ( 75)  0.1307 ( 77)  0.1716 ( 78)  0.1837 ( 83)
           0.1666 ( 84)  0.1112 ( 88) -0.1036 ( 94) -0.1619 ( 98) -0.1479 (100)
          -0.1097 (101)  0.1033 (105)  0.1132 (107)  0.1425 (109)  0.1475 (110)
          -0.1062 (117) -0.1286 (119)  0.1834 (122)  0.1297 (124) -0.1174 (128)
 CRD 12=   0.3920 (  9)  0.3489 ( 10) -0.1607 ( 15) -0.2520 ( 16)  0.1098 ( 24)
          -0.1028 ( 29) -0.1660 ( 30)  0.1763 ( 31)  0.1892 ( 32) -0.1914 ( 37)
           0.1183 ( 47) -0.1067 ( 50)  0.1135 ( 60)  0.1342 ( 63)  0.1367 ( 65)
           0.1238 ( 67) -0.1060 ( 71) -0.1195 ( 73) -0.1316 ( 74)  0.1175 ( 78)
           0.1217 ( 83) -0.1574 ( 86) -0.1055 ( 88) -0.1465 ( 94) -0.1257 ( 95)
 CRD 13=  -0.3885 (  5)  0.3980 (  6)  0.2737 (  9) -0.1901 ( 10)  0.1807 ( 18)
           0.1171 ( 19) -0.1228 ( 20)  0.2063 ( 21) -0.1819 ( 24) -0.1271 ( 39)
           0.1245 ( 50)  0.1335 ( 60) -0.1238 ( 63) -0.1058 ( 65)  0.1476 ( 67)
           0.1526 ( 70)  0.1430 ( 75)  0.1016 ( 76) -0.1417 ( 78) -0.1029 ( 79)
          -0.1323 ( 83) -0.1087 (117)
 CRD 14=  -0.1414 ( 13)  0.5421 ( 14)  0.5103 ( 17)  0.1193 ( 19) -0.1163 ( 21)
          -0.1343 ( 24)  0.1046 ( 40)  0.1003 ( 44)  0.1026 ( 47)  0.1094 ( 48)
           0.1025 ( 69)  0.1129 ( 77)  0.1512 (100)  0.1263 (101)  0.1486 (105)
           0.1711 (109)  0.1089 (110)
 CRD 15=   0.3663 (  7) -0.2808 (  9)  0.2035 ( 10)  0.1629 ( 14) -0.2102 ( 16)
          -0.3508 ( 17)  0.2021 ( 18) -0.1123 ( 27)  0.2051 ( 28)  0.1402 ( 35)
          -0.1032 ( 36) -0.2080 ( 45) -0.1244 ( 54)  0.1006 ( 56) -0.2445 ( 59)
          -0.1486 ( 61)  0.1318 ( 72) -0.1564 ( 82)  0.1312 (113)  0.1084 (116)
           0.1202 (121) -0.1488 (129)
 CRD 16=  -0.2074 (  7)  0.2510 ( 10) -0.4049 ( 11)  0.2890 ( 13)  0.3579 ( 14)
           0.2398 ( 16) -0.1098 ( 19) -0.1601 ( 36)  0.1839 ( 49)  0.2023 ( 56)
           0.1415 ( 66)  0.1098 ( 73) -0.1541 (102) -0.1289 (106) -0.1004 (111)
           0.1091 (123)  0.1094 (125)
 CRD 17=   0.2472 (  7) -0.2901 ( 11)  0.4669 ( 13) -0.3512 ( 16)  0.1135 ( 20)
           0.1412 ( 27) -0.1074 ( 28) -0.1414 ( 35)  0.1525 ( 54) -0.1497 ( 57)
           0.1044 ( 59) -0.1531 ( 72) -0.1087 ( 73)  0.1500 ( 81)  0.1105 ( 82)
          -0.1606 (121) -0.1162 (125)  0.1570 (127)  0.1175 (129)  0.1332 (130)
 CRD 18=   0.3676 (  5)  0.3589 (  6) -0.2731 (  7) -0.1589 ( 11) -0.1787 ( 14)
          -0.1175 ( 17) -0.1660 ( 31) -0.1662 ( 32)  0.1473 ( 38)  0.1362 ( 40)
           0.1334 ( 47)  0.1109 ( 70)  0.1184 ( 78)  0.1287 ( 85)  0.1353 ( 86)
           0.1931 ( 87)  0.2548 ( 89)  0.2486 ( 91)  0.2101 ( 93)  0.1353 ( 95)
           0.1325 ( 96)
 CRD 19=   0.4791 (  5)  0.4807 (  6) -0.1323 (  9) -0.2216 ( 10) -0.1416 ( 13)
           0.1123 ( 14) -0.1960 ( 16) -0.1467 ( 30) -0.1446 ( 37)  0.1650 ( 38)
           0.1005 ( 39) -0.1808 ( 85) -0.1252 ( 88) -0.2068 ( 90) -0.1891 ( 92)
          -0.1250 ( 94) -0.1883 ( 96)
 CRD 20=   0.3996 (  7)  0.3521 (  9) -0.3396 ( 10) -0.4853 ( 11) -0.2361 ( 13)
           0.2094 ( 16) -0.1574 ( 46)  0.1378 ( 53)  0.1198 ( 91)
 CRD 21=   0.1062 (  3) -0.1657 (  5) -0.1739 (  6) -0.4140 (  7) -0.3727 (  9)
          -0.3561 ( 10) -0.3667 ( 11) -0.1445 ( 13) -0.2022 ( 16) -0.1543 ( 46)
          -0.1693 ( 53)  0.1016 ( 85) -0.1142 ( 87) -0.1063 ( 93)  0.1032 ( 96)
          -0.1023 (117) -0.1117 (118)
 CRD 22=  -0.2540 (  9)  0.3070 ( 13)  0.4941 ( 16)  0.3060 ( 17)  0.1614 ( 18)
           0.1030 ( 41) -0.1001 ( 44) -0.1092 ( 49)  0.1124 ( 51) -0.1267 ( 56)
           0.1701 ( 58)  0.1131 ( 60) -0.1125 ( 98)  0.1454 (113)  0.1842 (115)
          -0.1286 (117) -0.1440 (124)  0.1340 (130)
 CRD 23=  -0.3250 (  5)  0.3123 (  6)  0.1779 ( 10) -0.3833 ( 13) -0.1299 ( 19)
           0.1100 ( 39)  0.1238 ( 48) -0.1302 ( 55) -0.1173 ( 65) -0.1408 ( 85)
           0.1292 ( 87)  0.1417 ( 89) -0.1414 ( 90) -0.1432 ( 91)  0.1431 ( 92)
          -0.1438 ( 93)  0.1557 ( 96) -0.1218 (102) -0.2002 (104) -0.1350 (108)
           0.1315 (110)  0.1085 (115)  0.1269 (122)
 CRD 24=  -0.1617 (  7)  0.2697 (  9) -0.1259 ( 10)  0.1338 ( 13)  0.4164 ( 14)
           0.1192 ( 16) -0.3141 ( 17) -0.1475 ( 18)  0.1190 ( 24) -0.1425 ( 49)
           0.1441 ( 55) -0.1311 ( 66)  0.1066 ( 78)  0.1002 ( 83) -0.1528 ( 84)
           0.1452 ( 87)  0.1516 ( 89)  0.1277 ( 92)  0.1341 ( 96) -0.1311 (103)
          -0.2264 (107)  0.1735 (111) -0.1395 (119)  0.1053 (126) -0.1226 (130)
 CRD 25=  -0.1066 (  7)  0.1382 (  9)  0.3555 ( 10) -0.2254 ( 11) -0.1477 ( 14)
           0.1810 ( 17)  0.1190 ( 18) -0.1127 ( 35)  0.1365 ( 36) -0.1234 ( 45)
           0.1034 ( 48) -0.1413 ( 56) -0.1019 ( 60) -0.1231 ( 61) -0.1392 ( 65)
          -0.1075 ( 68)  0.1030 ( 85)  0.1009 ( 90)  0.1150 ( 91)  0.1129 ( 93)
           0.1141 ( 99) -0.1105 (102) -0.1575 (103) -0.1972 (104) -0.1203 (105)
          -0.1185 (107) -0.1583 (108) -0.1638 (114) -0.1426 (115) -0.1838 (117)
          -0.1625 (118) -0.1217 (123) -0.1346 (124) -0.1206 (125)
 CRD 26=   0.1206 (  7) -0.1698 (  9)  0.1277 ( 10) -0.1148 ( 13)  0.2561 ( 14)
           0.1203 ( 27) -0.1172 ( 28) -0.1443 ( 44)  0.1085 ( 45)  0.1206 ( 59)
           0.1402 ( 60) -0.1402 ( 66)  0.1133 ( 70)  0.1365 ( 75)  0.1064 ( 76)
           0.1159 ( 81)  0.1195 ( 82) -0.1446 ( 84)  0.1320 ( 85) -0.1011 ( 86)
          -0.1096 ( 87)  0.1252 ( 88)  0.1553 ( 90)  0.1495 ( 91)  0.1727 ( 93)
           0.1427 ( 95) -0.1272 ( 98) -0.1672 (103) -0.1064 (105) -0.1711 (107)
          -0.1103 (109)  0.1213 (111)  0.1126 (114)  0.1555 (115)  0.1078 (118)
           0.1263 (119)  0.1227 (120)  0.1318 (123)  0.1282 (124) -0.2020 (128)
          -0.1162 (130)
 CRD 27=  -0.1699 ( 16)  0.3488 ( 17)  0.1057 ( 29) -0.1302 ( 36) -0.1350 ( 48)
           0.1036 ( 56) -0.1401 ( 57) -0.1223 ( 61) -0.1427 ( 68)  0.1026 ( 71)
           0.1296 ( 72)  0.1691 ( 73)  0.1026 ( 81)  0.1178 ( 82)  0.1026 ( 83)
          -0.1046 ( 84)  0.1191 ( 86)  0.1356 ( 87)  0.1153 ( 89)  0.1215 ( 92)
           0.1050 ( 94)  0.1012 ( 96)  0.1548 ( 99) -0.1316 (100) -0.1228 (101)
          -0.1293 (110) -0.1554 (114) -0.1642 (117)  0.1765 (119)  0.1614 (120)
          -0.1801 (122)  0.2160 (123)  0.2008 (124)  0.1344 (127)  0.1496 (129)
 CRD 28=  -0.1240 (  7)  0.1179 (  9) -0.1095 ( 17)  0.6033 ( 18)  0.1418 ( 35)
           0.1191 ( 36)  0.1900 ( 41) -0.1048 ( 49)  0.1876 ( 51) -0.1302 ( 54)
          -0.1130 ( 55) -0.1347 ( 56) -0.1398 ( 58) -0.1125 ( 67)  0.1062 ( 69)
           0.1349 ( 72) -0.1064 ( 73) -0.1138 (113)  0.1196 (117)  0.1283 (119)
           0.2304 (120)  0.1382 (121) -0.1130 (123) -0.1031 (125) -0.1447 (130)
 CRD 29=  -0.1908 ( 14) -0.1033 ( 33)  0.1366 ( 54) -0.2292 ( 68) -0.1060 ( 80)
          -0.1755 ( 84) -0.3035 ( 97)  0.1039 (103) -0.1048 (111) -0.2652 (112)
          -0.1374 (119) -0.1015 (120) -0.1437 (121) -0.2706 (122) -0.3700 (126)
          -0.3045 (128) -0.3010 (130)
 CRD 30=  -0.1078 ( 10)  0.1338 ( 11) -0.1499 ( 13)  0.5502 ( 18) -0.1589 ( 27)
          -0.1317 ( 28) -0.1238 ( 35) -0.2633 ( 41)  0.1077 ( 45) -0.2522 ( 51)
           0.1118 ( 54)  0.1238 ( 55)  0.1698 ( 57)  0.1222 ( 58)  0.1329 ( 59)
          -0.1390 ( 72) -0.1605 ( 81)  0.1097 ( 82) -0.3026 (120) -0.1267 (121)
           0.1222 (123) -0.1480 (124) -0.1759 (127)
 CRD 31=  -0.1681 (  3)  0.1513 (  4)  0.2053 (  5) -0.2246 (  6) -0.2388 (  7)
           0.1724 (  9) -0.1645 ( 10)  0.2211 ( 11)  0.1138 ( 14) -0.1336 ( 17)
           0.1509 ( 31) -0.1604 ( 32) -0.1050 ( 45) -0.1160 ( 47)  0.1030 ( 49)
          -0.1535 ( 55)  0.1371 ( 58) -0.1063 ( 61)  0.1112 ( 66)  0.1075 ( 70)
          -0.1310 ( 78)  0.1582 ( 86)  0.1124 ( 87) -0.1491 ( 95) -0.1158 ( 96)
           0.1297 ( 99) -0.1097 (102) -0.1438 (104) -0.1106 (106) -0.1448 (108)
          -0.1474 (111)  0.1130 (113)  0.1708 (115)  0.1427 (118) -0.1944 (126)
          -0.1302 (128)
 CRD 32=   0.1349 (  4)  0.2061 (  6) -0.1406 (  8) -0.1017 (  9)  0.1167 ( 11)
          -0.1550 ( 12) -0.1315 ( 16)  0.1078 ( 17) -0.1791 ( 20) -0.1477 ( 21)
           0.2205 ( 30)  0.1557 ( 31) -0.1907 ( 38)  0.1220 ( 39)  0.1516 ( 40)
          -0.1859 ( 46)  0.1042 ( 47)  0.1281 ( 70) -0.1437 ( 75)  0.3427 ( 85)
           0.1910 ( 88) -0.2612 ( 93) -0.1411 ( 95) -0.1478 (101) -0.1397 (113)
          -0.1167 (114)  0.1072 (116)  0.1302 (117)  0.1825 (118)
 CRD 33=  -0.1387 (  3) -0.2270 (  5)  0.1669 (  8) -0.1121 (  9)  0.1058 ( 10)
           0.1460 ( 12)  0.1028 ( 13)  0.1010 ( 17)  0.1765 ( 19)  0.1442 ( 24)
          -0.1457 ( 32) -0.2196 ( 37)  0.1957 ( 38) -0.1156 ( 40) -0.1448 ( 47)
          -0.1255 ( 50)  0.1816 ( 53) -0.1186 ( 78)  0.1525 ( 83)  0.1316 ( 86)
           0.2602 ( 87) -0.1958 ( 94) -0.3383 ( 96)  0.1458 (102)  0.1114 (103)
           0.1444 (105) -0.1277 (107) -0.1564 (108)
 CRD 34=   0.2875 (  3) -0.2889 (  4) -0.1073 (  6) -0.2360 (  8)  0.2579 ( 12)
           0.1339 ( 13) -0.1415 ( 16)  0.1594 ( 19) -0.1509 ( 20) -0.1223 ( 21)
           0.1309 ( 24) -0.1631 ( 39) -0.1468 ( 40)  0.1346 ( 47)  0.1565 ( 50)
           0.1210 ( 60) -0.1230 ( 65) -0.1143 ( 70)  0.1237 ( 75)  0.1060 ( 78)
          -0.1157 ( 83) -0.1850 ( 85)  0.1292 ( 89) -0.1296 ( 91)  0.1084 ( 93)
           0.1683 ( 96) -0.2016 (108)  0.1005 (110)  0.1960 (118)  0.1073 (122)
 CRD 35=   0.1081 (  3)  0.1363 (  4) -0.2379 (  7) -0.2509 ( 11)  0.3243 ( 15)
          -0.1358 ( 21) -0.1298 ( 24) -0.1480 ( 41) -0.1025 ( 44)  0.1323 ( 46)
          -0.1170 ( 48) -0.1908 ( 51)  0.1240 ( 53)  0.1259 ( 55)  0.1211 ( 58)
          -0.1361 ( 61) -0.1405 ( 66) -0.1545 ( 70) -0.1395 ( 78) -0.1201 ( 85)
          -0.1105 ( 89) -0.1306 ( 91) -0.1151 ( 96) -0.1035 ( 98)  0.1296 (100)
           0.1291 (106)  0.2411 (108)  0.1287 (109) -0.1186 (110)  0.1362 (116)
           0.2276 (118) -0.1094 (128)
 CRD 36=  -0.1681 (  3)  0.1476 (  4)  0.1702 (  7) -0.1398 ( 11) -0.1035 ( 13)
           0.1034 ( 14)  0.1087 ( 16) -0.1041 ( 17)  0.1213 ( 19) -0.1205 ( 20)
           0.1871 ( 30)  0.1604 ( 31) -0.1515 ( 32)  0.1043 ( 36) -0.1826 ( 37)
          -0.1569 ( 40)  0.1245 ( 46)  0.1666 ( 47) -0.1498 ( 53) -0.1522 ( 70)
          -0.1048 ( 73)  0.1703 ( 78)  0.1791 ( 88)  0.2544 ( 89)  0.2377 ( 90)
          -0.2452 ( 91) -0.2347 ( 92) -0.1754 ( 94)  0.1111 (104)  0.1054 (108)
          -0.1195 (118)
 CRD 37=   0.2611 (  3)  0.2476 (  4) -0.1121 (  6)  0.1924 (  8) -0.1074 (  9)
          -0.1096 ( 10)  0.1665 ( 12) -0.1116 ( 16) -0.1569 ( 19) -0.1544 ( 20)
          -0.1602 ( 25)  0.1792 ( 38)  0.3287 ( 41)  0.1060 ( 46)  0.3291 ( 51)
           0.1078 ( 86)  0.1375 ( 87) -0.1270 ( 88)  0.1449 ( 89)  0.1283 ( 91)
           0.1253 ( 93) -0.1167 ( 94) -0.1218 (101) -0.1186 (105) -0.1289 (120)
 CRD 38=   0.1323 (  3) -0.1322 (  4) -0.2108 (  5)  0.2127 (  6)  0.1567 ( 14)
          -0.1593 ( 17) -0.1335 ( 21)  0.1409 ( 24) -0.1651 ( 31)  0.1731 ( 32)
           0.1078 ( 58) -0.1993 ( 61)  0.1980 ( 66) -0.1522 ( 73) -0.1001 ( 76)
           0.1506 ( 82)  0.1043 ( 83)  0.1019 ( 85) -0.1392 ( 86) -0.1297 ( 87)
          -0.1626 ( 89)  0.1633 ( 91)  0.1454 ( 93)  0.1280 ( 95)  0.1087 ( 99)
           0.1729 (103) -0.1106 (111) -0.1956 (114) -0.1206 (126)
 CRD 39=   0.1514 (  5)  0.1364 (  6)  0.1732 (  8) -0.1604 (  9) -0.1611 ( 10)
           0.1699 ( 12) -0.1054 ( 22) -0.1048 ( 23)  0.1850 ( 25) -0.2259 ( 38)
           0.1666 ( 46)  0.1608 ( 53)  0.2078 ( 75)  0.2020 ( 83) -0.1298 ( 86)
           0.1268 ( 88) -0.2066 ( 89)  0.3181 ( 90) -0.2181 ( 91)  0.3216 ( 92)
           0.1336 ( 94) -0.1437 ( 95) -0.1223 (101) -0.1043 (102) -0.1243 (105)
          -0.1002 (113)
 CRD 40=  -0.1061 (  4)  0.2896 (  8)  0.1384 (  9)  0.1423 ( 10)  0.2476 ( 12)
          -0.1259 ( 27) -0.1109 ( 35) -0.1209 ( 38)  0.3180 ( 41)  0.3319 ( 51)
           0.1454 ( 73)  0.1216 ( 74)  0.1496 ( 82) -0.1321 ( 87)  0.1030 ( 88)
          -0.1376 ( 93)  0.1151 ( 94)  0.1298 (101)  0.1262 (102)  0.1049 (103)
           0.1260 (104)  0.1454 (105)  0.1062 (113)  0.1087 (114)  0.1238 (115)
          -0.1170 (120)  0.1734 (123)
 CRD 41=   0.1328 (  3) -0.1322 (  4)  0.3144 (  8) -0.3443 ( 12) -0.2027 ( 22)
           0.1897 ( 23) -0.1154 ( 27)  0.1251 ( 35) -0.1094 ( 40)  0.1085 ( 47)
          -0.1281 ( 56)  0.1166 ( 59) -0.1156 ( 63)  0.1021 ( 67)  0.1129 ( 72)
           0.1389 ( 76) -0.1380 ( 79) -0.1183 ( 81)  0.1174 ( 87) -0.1279 ( 90)
           0.1285 ( 92) -0.1131 ( 93) -0.1311 (101)  0.1003 (103)  0.1391 (104)
           0.1295 (105) -0.1102 (115)  0.1512 (119) -0.1701 (124) -0.1441 (125)
           0.1270 (129)
 CRD 42=  -0.1147 (  5)  0.1095 (  6)  0.1721 (  8)  0.1475 (  9) -0.1439 ( 10)
          -0.1804 ( 12)  0.1077 ( 13) -0.1055 ( 19)  0.1114 ( 20) -0.1770 ( 27)
           0.1757 ( 29)  0.1144 ( 30) -0.1987 ( 33)  0.1829 ( 35) -0.1165 ( 37)
           0.1239 ( 46) -0.1135 ( 53)  0.1018 ( 63)  0.1131 ( 64) -0.1267 ( 70)
           0.1790 ( 71)  0.1992 ( 72)  0.1079 ( 73) -0.1419 ( 76)  0.1122 ( 78)
           0.1458 ( 79) -0.2017 ( 80) -0.2181 ( 81) -0.1194 ( 82) -0.1355 ( 87)
           0.1746 ( 90) -0.1689 ( 92)  0.1399 ( 93) -0.1477 (103) -0.1618 (104)
           0.1493 (114)  0.1247 (115)  0.1025 (119)
 CRD 43=  -0.1255 ( 13)  0.1250 ( 14)  0.1007 ( 15) -0.1171 ( 16)  0.1635 ( 17)
           0.1526 ( 28)  0.1037 ( 29)  0.1514 ( 36) -0.1628 ( 44) -0.1783 ( 48)
          -0.1567 ( 62) -0.1097 ( 63) -0.1178 ( 64) -0.1068 ( 67)  0.1024 ( 71)
           0.1971 ( 74)  0.1148 ( 84)  0.1232 ( 97) -0.1625 ( 98) -0.1910 ( 99)
          -0.1546 (100)  0.1045 (103)  0.1758 (104) -0.1684 (106) -0.1764 (109)
          -0.1784 (110) -0.1593 (111)  0.1078 (112)  0.1687 (114)  0.1741 (115)
          -0.1047 (116) -0.1525 (119) -0.2570 (123) -0.1321 (124) -0.1167 (125)
          -0.1403 (129)
 CRD 44=  -0.1029 ( 11)  0.1101 ( 34)  0.1087 ( 39) -0.1093 ( 55)  0.1298 ( 60)
           0.1808 ( 63) -0.1385 ( 65) -0.1850 ( 67)  0.2373 ( 68)  0.2150 ( 69)
           0.1104 ( 76) -0.2660 ( 77) -0.2438 ( 84) -0.1054 (100)  0.2411 (102)
           0.1164 (103)  0.3104 (106)  0.1857 (107) -0.2007 (113)  0.1142 (115)
          -0.2987 (116) -0.1492 (117)
 CRD 45=  -0.2406 ( 15)  0.1028 ( 26)  0.1052 ( 50) -0.1124 ( 58) -0.1286 ( 60)
           0.1410 ( 63) -0.1031 ( 65)  0.1920 ( 67) -0.2454 ( 68) -0.2805 ( 69)
          -0.2281 ( 77) -0.1977 ( 84) -0.1149 ( 99)  0.1916 (102)  0.1171 (103)
           0.2356 (106)  0.1611 (107) -0.1169 (111)  0.2244 (113)  0.1071 (114)
           0.3062 (116)  0.1889 (117) -0.1037 (123)

 THE DETERMINANT OF THE G MATRIX IS 10**(    -8)


                     --------------------
                     INTERNAL COORDINATES
                     --------------------

                 - - ATOMS - -         COORDINATE      COORDINATE
 NO.   TYPE    I  J  K  L  M  N        (BOHR,RAD)       (ANG,DEG)
 ----------------------------------------------------------------
   1 STRETCH   6 16                     7.4969770       3.9672297
   2 STRETCH   9 16                     7.5847652       4.0136852
   3 STRETCH   1  2                     2.9030949       1.5362518
   4 STRETCH   1  3                     2.9030582       1.5362323
   5 STRETCH   1  4                     2.1012175       1.1119165
   6 STRETCH   1  5                     2.1011802       1.1118968
   7 STRETCH   2 10                     2.0981394       1.1102876
   8 STRETCH   2  9                     2.8726611       1.5201469
   9 STRETCH   2 11                     2.1073648       1.1151695
  10 STRETCH   3  8                     2.1073739       1.1151743
  11 STRETCH   3  7                     2.0981390       1.1102874
  12 STRETCH   3  6                     2.8726701       1.5201516
  13 STRETCH   6 13                     2.0988276       1.1106518
  14 STRETCH   6 12                     2.1055073       1.1141866
  15 STRETCH   6  9                     2.8813687       1.5247548
  16 STRETCH   9 15                     2.0986300       1.1105472
  17 STRETCH   9 14                     2.1055144       1.1141903
  18 STRETCH  16 17                     2.8889801       1.5287825
  19 BEND      1  3  7                  2.0087972     115.0956016
  20 BEND      1  2 10                  2.0088598     115.0991910
  21 BEND      1  2 11                  1.8705074     107.1721798
  22 BEND      1  2  9                  1.8252832     104.5810234
  23 BEND      1  3  6                  1.8252248     104.5776773
  24 BEND      1  3  8                  1.8705387     107.1739707
  25 BEND      2  1  3                  1.8296821     104.8330629
  26 BEND      2  9  6                  1.7588490     100.7746248
  27 BEND      2  9 14                  1.9150541     109.7245185
  28 BEND      2  9 15                  1.9786333     113.3673386
  29 BEND      2  9 16                  2.7279282     156.2987731
  30 BEND      2  1  4                  1.8885168     108.2040449
  31 BEND      2  1  5                  1.9741107     113.1082141
  32 BEND      3  1  4                  1.9739808     113.1007675
  33 BEND      3  6 16                  2.7096916     155.2538917
  34 BEND      3  6  9                  1.7588155     100.7727054
  35 BEND      3  6 12                  1.9150053     109.7217208
  36 BEND      3  6 13                  1.9788402     113.3791891
  37 BEND      3  1  5                  1.8886243     108.2101991
  38 BEND      4  1  5                  1.9094457     109.4031805
  39 BEND      6  3  7                  2.0357040     116.6372474
  40 BEND      6  3  8                  1.8387967     105.3552916
  41 BEND      6 16 17                  1.4590205      83.5957145
  42 BEND      6 16  9                  0.3842896      22.0181725
  43 BEND      6  9 16                  1.3487402      77.2771214
  44 BEND      6  9 14                  1.9137590     109.6503146
  45 BEND      6  9 15                  1.9923509     114.1532980
  46 BEND      7  3  8                  1.8720371     107.2598276
  47 BEND      9  2 11                  1.8387289     105.3514041
  48 BEND      9  6 12                  1.9137478     109.6496718
  49 BEND      9  6 13                  1.9923243     114.1517729
  50 BEND      9  2 10                  2.0356989     116.6369535
  51 BEND      9 16 17                  1.0920312      62.5687796
  52 BEND      9  6 16                  1.4085628      80.7047061
  53 BEND     10  2 11                  1.8720061     107.2580477
  54 BEND     12  6 16                  1.6162811      92.6060850
  55 BEND     12  6 13                  1.9007768     108.9064906
  56 BEND     13  6 16                  0.8109573      46.4644326
  57 BEND     14  9 16                  1.6207184      92.8603226
  58 BEND     14  9 15                  1.9008621     108.9113736
  59 BEND     15  9 16                  0.8662182      49.6306463
  60 TORSION   1  2  9 14              -1.3193629     -75.5939243
  61 TORSION   1  2  9 15               2.8344501     162.4020297
  62 TORSION   1  2  9  6               0.6980096      39.9930048
  63 TORSION   1  3  6 16               2.2891313     131.1575628
  64 TORSION   1  3  6  9               0.6983283      40.0112617
  65 TORSION   1  3  6 12              -1.3189965     -75.5729334
  66 TORSION   1  3  6 13               2.8348190     162.4231669
  67 TORSION   1  2  9 16               2.1442501     122.8564795
  68 TORSION   2  9 16 17               1.2853210      73.6434712
  69 TORSION   2  9 16  6              -1.5332625     -87.8494724
  70 TORSION   2  1  3  8               1.6781139      96.1488424
  71 TORSION   2  9  6 16               2.7203520     155.8646863
  72 TORSION   2  9  6 12               1.1590736      66.4100265
  73 TORSION   2  9  6 13              -2.9862303    -171.0983924
  74 TORSION   2  9  6  3              -0.8591897     -49.2279426
  75 TORSION   2  1  3  7              -2.5248607    -144.6638594
  76 TORSION   2  1  3  6              -0.2682010     -15.3667858
  77 TORSION   3  6 16  9              -1.6683191     -95.5876425
  78 TORSION   3  1  2 11               1.6785602      96.1744159
  79 TORSION   3  1  2  9              -0.2676914     -15.3375902
  80 TORSION   3  6  9 16               2.7036437     154.9073711
  81 TORSION   3  6  9 14               1.1591493      66.4143654
  82 TORSION   3  6  9 15              -2.9860159    -171.0861106
  83 TORSION   3  1  2 10              -2.5244372    -144.6395965
  84 TORSION   3  6 16 17              -1.9557622    -112.0569198
  85 TORSION   4  1  3  8              -2.5514234    -146.1857952
  86 TORSION   4  1  2  9              -2.3787387    -136.2916894
  87 TORSION   4  1  2 10               1.6477008      94.4063043
  88 TORSION   4  1  3  6               1.7854470     102.2985766
  89 TORSION   4  1  2 11              -0.4324871     -24.7796833
  90 TORSION   4  1  3  7              -0.4712127     -26.9984970
  91 TORSION   5  1  3  8              -0.4331396     -24.8170699
  92 TORSION   5  1  2 10              -0.4705917     -26.9629174
  93 TORSION   5  1  3  7               1.6470712      94.3702282
  94 TORSION   5  1  2  9               1.7861541     102.3390889
  95 TORSION   5  1  3  6              -2.3794545    -136.3326982
  96 TORSION   5  1  2 11              -2.5507796    -146.1489050
  97 TORSION   6  9 16 17               2.8185836     161.4929436
  98 TORSION   6 16  9 14               1.9112265     109.5052115
  99 TORSION   6 16  9 15              -2.4076297    -137.9470180
 100 TORSION   6  9  2 11              -1.2709986     -72.8228561
 101 TORSION   6  9  2 10               2.9385913     168.3688778
 102 TORSION   7  3  6 16              -1.7536016    -100.4739726
 103 TORSION   7  3  6 13              -1.2079139     -69.2083685
 104 TORSION   7  3  6 12               0.9214559      52.7955313
 105 TORSION   7  3  6  9               2.9387806     168.3797264
 106 TORSION   8  3  6 16               0.3200852      18.3395297
 107 TORSION   8  3  6 13               0.8657729      49.6051338
 108 TORSION   8  3  6 12               2.9951427     171.6090335
 109 TORSION   8  3  6  9              -1.2707179     -72.8067714
 110 TORSION   9 16  6 12               1.9109644     109.4901927
 111 TORSION   9 16  6 13              -2.3853436    -136.6701186
 112 TORSION   9  6 16 17              -0.2874431     -16.4692773
 113 TORSION  10  2  9 16              -1.8983536    -108.7676476
 114 TORSION  10  2  9 15              -1.2081535     -69.2220974
 115 TORSION  10  2  9 14               0.9212188      52.7819486
 116 TORSION  11  2  9 16               0.1752419      10.0406186
 117 TORSION  11  2  9 15               0.8654419      49.5861688
 118 TORSION  11  2  9 14               2.9948142     171.5902148
 119 TORSION  12  6  9 15              -0.9677526     -55.4481415
 120 TORSION  12  6  9 14              -3.1057727    -177.9476655
 121 TORSION  12  6  9 16              -1.5612783     -89.4546598
 122 TORSION  12  6 16 17               1.6235212      93.0209154
 123 TORSION  13  6  9 15               1.1701288      67.0434396
 124 TORSION  13  6  9 14              -0.9678913     -55.4560844
 125 TORSION  13  6  9 16               0.5766031      33.0369213
 126 TORSION  13  6 16 17              -2.6727867    -153.1393958
 127 TORSION  14  9  6 16              -1.5444943     -88.4930057
 128 TORSION  14  9 16 17              -1.5533752     -89.0018450
 129 TORSION  15  9  6 16               0.5935257      34.0065183
 130 TORSION  15  9 16 17               0.4109539      23.5459256

     ------------------------------------------
     THE POINT GROUP IS C1 , NAXIS= 0, ORDER= 1
     ------------------------------------------

     DIMENSIONS OF THE SYMMETRY SUBSPACES ARE
 A   =   55

 ..... DONE SETTING UP THE RUN .....
 STEP CPU TIME =     0.08 TOTAL CPU TIME =          0.1 (      0.0 MIN)
 TOTAL WALL CLOCK TIME=          0.1 SECONDS, CPU UTILIZATION IS    88.89%


          -----------------------------
          STATIONARY POINT LOCATION RUN
          -----------------------------


           ** GEOMETRY CONSTRAINTS ARE BEING APPLIED. **

          TRANSFORMING DISPLACEMENT FROM INTERNALS TO CARTESIANS
          THE ROOT MEAN SQUARE ERROR IN ITERATION   1 IS   0.00001161
          THE ROOT MEAN SQUARE ERROR IN ITERATION   2 IS   0.00000000
 WARNING! THE RADIUS IN CARTESIANS IS    0.02429
 OBTAINING INITIAL HESSIAN, HESS=CALC    

     ---------------------------------
     HESSIAN MATRIX CONTROL PARAMETERS
     ---------------------------------
     METHOD=ANALYTIC   NVIB  =       2   VIBSIZ= 0.01000
     RDHESS=       F   PURIFY=       F   PRTIFC=       F
     VIBANL=       F   DECOMP=       F   PROJCT=       F
     SCLFAC= 1.00000   PRTSCN=       F   NPRT  =       0
     PULCOR=       F   NPUN  =       0   REDOVB=       T
     HSSTYP=GENERAL 
 Old integral subroutine is used

     ------------------------------
     CPHF RESPONSE SOLUTION OPTIONS
     ------------------------------
     POLAR  =       F     NWORD  =       0
     CPHF   =AO      

          ********************
          1 ELECTRON INTEGRALS
          ********************
 ...... END OF ONE-ELECTRON INTEGRALS ......
 STEP CPU TIME =     0.03 TOTAL CPU TIME =          0.1 (      0.0 MIN)
 TOTAL WALL CLOCK TIME=          0.1 SECONDS, CPU UTILIZATION IS    84.62%

          -------------
          GUESS OPTIONS
          -------------
          GUESS =HUCKEL            NORB  =       0          NORDER=       0
          MIX   =       F          PRTMO =       F          PUNMO =       F
          TOLZ  = 1.0E-08          TOLE  = 1.0E-05
          SYMDEN=       F          PURIFY=       F

 INITIAL GUESS ORBITALS GENERATED BY HUCKEL   ROUTINE.
 HUCKEL GUESS REQUIRES     45466 WORDS.

 SYMMETRIES FOR INITIAL GUESS ORBITALS FOLLOW.   BOTH SET(S).
    38 ORBITALS ARE OCCUPIED (   19 CORE ORBITALS).
    20=A       21=A       22=A       23=A       24=A       25=A       26=A   
    27=A       28=A       29=A       30=A       31=A       32=A       33=A   
    34=A       35=A       36=A       37=A       38=A       39=A       40=A   
    41=A       42=A       43=A       44=A       45=A       46=A       47=A   
    48=A   
 ...... END OF INITIAL ORBITAL SELECTION ......
 STEP CPU TIME =     0.02 TOTAL CPU TIME =          0.1 (      0.0 MIN)
 TOTAL WALL CLOCK TIME=          0.2 SECONDS, CPU UTILIZATION IS    86.67%

                    ----------------------
                    AO INTEGRAL TECHNOLOGY
                    ----------------------
     S,P,L SHELL ROTATED AXIS INTEGRALS, REPROGRAMMED BY
        KAZUYA ISHIMURA (IMS) AND JOSE SIERRA (SYNSTAR).
     S,P,D,L SHELL ROTATED AXIS INTEGRALS PROGRAMMED BY
        KAZUYA ISHIMURA (INSTITUTE FOR MOLECULAR SCIENCE).
     S,P,D,F,G SHELL TO TOTAL QUARTET ANGULAR MOMENTUM SUM 5,
        ERIC PROGRAM BY GRAHAM FLETCHER (ELORET AND NASA ADVANCED
        SUPERCOMPUTING DIVISION, AMES RESEARCH CENTER).
     S,P,D,F,G,L SHELL GENERAL RYS QUADRATURE PROGRAMMED BY
        MICHEL DUPUIS (PACIFIC NORTHWEST NATIONAL LABORATORY).

          --------------------
          2 ELECTRON INTEGRALS
          --------------------

 THE -PK- OPTION IS OFF, THE INTEGRALS ARE NOT IN SUPERMATRIX FORM.
 STORING   15000 INTEGRALS/RECORD ON DISK, USING 12 BYTES/INTEGRAL.
 TWO ELECTRON INTEGRAL EVALUATION REQUIRES   90747 WORDS OF MEMORY.
 SCHWARZ INEQUALITY OVERHEAD:      1463 INTEGRALS, T=        0.00
 II,JST,KST,LST =  1  1  1  1 NREC =         1 INTLOC =    1
 II,JST,KST,LST =  2  1  1  1 NREC =         1 INTLOC =    2
 II,JST,KST,LST =  3  1  1  1 NREC =         1 INTLOC =   34
 II,JST,KST,LST =  4  1  1  1 NREC =         1 INTLOC =  141
 II,JST,KST,LST =  5  1  1  1 NREC =         1 INTLOC = 1360
 II,JST,KST,LST =  6  1  1  1 NREC =         1 INTLOC = 1932
 II,JST,KST,LST =  7  1  1  1 NREC =         1 INTLOC = 6794
 II,JST,KST,LST =  8  1  1  1 NREC =         1 INTLOC = 8829
 II,JST,KST,LST =  9  1  1  1 NREC =         1 INTLOC =11272
 II,JST,KST,LST = 10  1  1  1 NREC =         1 INTLOC =13744
 II,JST,KST,LST = 11  1  1  1 NREC =         3 INTLOC =  716
 II,JST,KST,LST = 12  1  1  1 NREC =         3 INTLOC = 6708
 II,JST,KST,LST = 13  1  1  1 NREC =         3 INTLOC =13533
 II,JST,KST,LST = 14  1  1  1 NREC =         4 INTLOC = 5262
 II,JST,KST,LST = 15  1  1  1 NREC =         7 INTLOC = 1216
 II,JST,KST,LST = 16  1  1  1 NREC =         7 INTLOC =14489
 II,JST,KST,LST = 17  1  1  1 NREC =         8 INTLOC =14172
 II,JST,KST,LST = 18  1  1  1 NREC =        10 INTLOC =  333
 II,JST,KST,LST = 19  1  1  1 NREC =        11 INTLOC = 3047
 II,JST,KST,LST = 20  1  1  1 NREC =        12 INTLOC = 7458
 II,JST,KST,LST = 21  1  1  1 NREC =        13 INTLOC =13626
 II,JST,KST,LST = 22  1  1  1 NREC =        14 INTLOC = 1522
 II,JST,KST,LST = 23  1  1  1 NREC =        15 INTLOC = 6084
 II,JST,KST,LST = 24  1  1  1 NREC =        18 INTLOC = 4880
 II,JST,KST,LST = 25  1  1  1 NREC =        24 INTLOC = 3585
 II,JST,KST,LST = 26  1  1  1 NREC =        33 INTLOC = 1642
 SCHWARZ INEQUALITY TEST SKIPPED       22894 INTEGRAL BLOCKS.
 TOTAL NUMBER OF NONZERO TWO-ELECTRON INTEGRALS =              529030
         36 INTEGRAL RECORDS WERE STORED ON DISK FILE  8.
  ...... END OF TWO-ELECTRON INTEGRALS .....
 STEP CPU TIME =     0.14 TOTAL CPU TIME =          0.3 (      0.0 MIN)
 TOTAL WALL CLOCK TIME=          0.3 SECONDS, CPU UTILIZATION IS    90.00%

          --------------------------
                 RHF SCF CALCULATION
          --------------------------

     NUCLEAR ENERGY =       358.3989454444
     MAXIT =   30     NPUNCH=    2
     EXTRAP=T  DAMP=F  SHIFT=F  RSTRCT=F  DIIS=F  DEM=F  SOSCF=T
     DENSITY MATRIX CONV=  1.00E-05
     SOSCF WILL OPTIMIZE     646 ORBITAL ROTATIONS, SOGTOL=   0.250
     MEMORY REQUIRED FOR RHF ITERS=     54529 WORDS.

 ITER EX DEM     TOTAL ENERGY        E CHANGE  DENSITY CHANGE     ORB. GRAD
   1  0  0    -2738.8825609280 -2738.8825609280  12.155646058   0.000000000
          ---------------START SECOND ORDER SCF---------------
   2  1  0    -2739.4104276879    -0.5278667599   0.189031039   0.033132281
   3  2  0    -2739.4191152735    -0.0086875856   0.023593537   0.006989995
   4  3  0    -2739.4196351579    -0.0005198844   0.009560253   0.001702536
   5  4  0    -2739.4196380274    -0.0000028695   0.000305008   0.000101459
   6  5  0    -2739.4196381241    -0.0000000966   0.000134201   0.000027283
   7  6  0    -2739.4196381258    -0.0000000018   0.000020592   0.000003215
   8  7  0    -2739.4196381259    -0.0000000001   0.000001008   0.000000421
   9  8  0    -2739.4196381259    -0.0000000000   0.000000966   0.000000182

          -----------------
          DENSITY CONVERGED
          -----------------
     TIME TO FORM FOCK OPERATORS=       0.1 SECONDS (       0.0 SEC/ITER)
     TIME TO SOLVE SCF EQUATIONS=       0.0 SECONDS (       0.0 SEC/ITER)

 FINAL RHF ENERGY IS    -2739.4196381259 AFTER   9 ITERATIONS

          ------------
          EIGENVECTORS
          ------------

                      1          2          3          4          5
                 -484.8087   -63.7189   -57.8503   -57.8478   -57.8478
                     A          A          A          A          A   
    1  C  1  S   -0.000000  -0.000000  -0.000000   0.000000  -0.000000
    2  C  1  S    0.000000   0.000003   0.000000  -0.000000   0.000000
    3  C  1  X   -0.000000  -0.000000   0.000000   0.000000  -0.000000
    4  C  1  Y   -0.000000  -0.000003  -0.000000   0.000000  -0.000000
    5  C  1  Z   -0.000000  -0.000001  -0.000000   0.000000  -0.000000
    6  C  2  S    0.000000   0.000001  -0.000000  -0.000000   0.000000
    7  C  2  S   -0.000000  -0.000009   0.000000   0.000002  -0.000000
    8  C  2  X   -0.000000  -0.000001  -0.000000   0.000000  -0.000000
    9  C  2  Y    0.000000   0.000005  -0.000000  -0.000001   0.000000
   10  C  2  Z   -0.000000  -0.000003   0.000000   0.000000  -0.000000
   11  C  3  S    0.000000   0.000002  -0.000000  -0.000000   0.000000
   12  C  3  S   -0.000000  -0.000019   0.000000   0.000002  -0.000001
   13  C  3  X   -0.000000  -0.000002   0.000000   0.000000  -0.000000
   14  C  3  Y    0.000000   0.000012  -0.000000  -0.000001   0.000000
   15  C  3  Z    0.000000   0.000002  -0.000000  -0.000000   0.000000
   16  H  4  S   -0.000000  -0.000000   0.000000   0.000000   0.000000
   17  H  5  S    0.000000   0.000000   0.000000   0.000000  -0.000000
   18  C  6  S   -0.000000  -0.000014  -0.000000   0.000001  -0.000000
   19  C  6  S    0.000001   0.000132   0.000002  -0.000014   0.000003
   20  C  6  X   -0.000000  -0.000075  -0.000001   0.000009  -0.000002
   21  C  6  Y   -0.000000  -0.000048  -0.000002   0.000005   0.000000
   22  C  6  Z    0.000000   0.000034   0.000001  -0.000004   0.000001
   23  H  7  S    0.000000   0.000003   0.000000  -0.000000   0.000000
   24  H  8  S    0.000000   0.000007   0.000000  -0.000001   0.000000
   25  C  9  S   -0.000000  -0.000003  -0.000000   0.000001  -0.000000
   26  C  9  S    0.000000   0.000027   0.000001  -0.000008   0.000003
   27  C  9  X    0.000000   0.000024  -0.000000  -0.000006   0.000002
   28  C  9  Y    0.000000   0.000008  -0.000001   0.000001  -0.000001
   29  C  9  Z   -0.000000  -0.000007  -0.000000   0.000002  -0.000001
   30  H 10  S    0.000000   0.000002  -0.000000  -0.000000   0.000000
   31  H 11  S    0.000000   0.000003   0.000000  -0.000001   0.000000
   32  H 12  S   -0.000000  -0.000016   0.000000   0.000001  -0.000001
   33  H 13  S   -0.000002  -0.000276  -0.000005   0.000031  -0.000006
   34  H 14  S   -0.000000  -0.000005   0.000000   0.000001   0.000000
   35  H 15  S   -0.000000  -0.000043  -0.000002   0.000018  -0.000006
   36  BR16  S    0.994692   0.419612   0.000715  -0.000001   0.000001
   37  BR16  S    0.014823  -1.059866  -0.001822   0.000002  -0.000002
   38  BR16  X    0.000007  -0.001460   0.937665  -0.326295  -0.008971
   39  BR16  Y    0.000002  -0.000488   0.314545   0.910586  -0.240264
   40  BR16  Z    0.000001  -0.000137   0.087181   0.224068   0.963345
   41  BR16  S   -0.073389   2.442674   0.003945  -0.000004   0.000004
   42  BR16  X   -0.000003  -0.000392   0.017665  -0.006109  -0.000168
   43  BR16  Y   -0.000001  -0.000133   0.005926   0.017049  -0.004498
   44  BR16  Z   -0.000000  -0.000037   0.001642   0.004195   0.018036
   45  BR16 XX    0.032041  -1.127375  -0.001716  -0.000044  -0.000003
   46  BR16 YY    0.032040  -1.127353  -0.001826   0.000045  -0.000013
   47  BR16 ZZ    0.032040  -1.127351  -0.001838   0.000005   0.000011
   48  BR16 XY    0.000000  -0.000009   0.000048   0.000065  -0.000020
   49  BR16 XZ    0.000000  -0.000003   0.000013   0.000016   0.000078
   50  BR16 YZ    0.000000  -0.000001   0.000004   0.000013   0.000024
   51  BR16  S    0.000094   0.018825  -0.000138  -0.000000   0.000000
   52  BR16  X    0.000009   0.001582  -0.001409   0.000425   0.000012
   53  BR16  Y    0.000003   0.000536  -0.000473  -0.001184   0.000312
   54  BR16  Z    0.000001   0.000148  -0.000131  -0.000291  -0.001252
   55  H 17  S   -0.000022  -0.004056   0.000463  -0.000001   0.000000

                      6          7          8          9         10
                  -11.0375   -11.0349   -11.0343   -11.0342   -11.0331
                     A          A          A          A          A   
    1  C  1  S   -0.008246  -0.251519   0.911062   0.273338   0.126356
    2  C  1  S    0.000150  -0.014980   0.033173   0.010266  -0.001127
    3  C  1  X    0.000115  -0.003324  -0.001007  -0.001042   0.003058
    4  C  1  Y   -0.000071   0.002351  -0.000063  -0.000057   0.002707
    5  C  1  Z   -0.000172   0.000469   0.000102   0.000294  -0.000464
    6  C  2  S   -0.041455   0.954622   0.212772   0.157364   0.030819
    7  C  2  S   -0.007342   0.036950   0.002655   0.003986   0.000519
    8  C  2  X    0.001027  -0.001336   0.002917   0.001261   0.000479
    9  C  2  Y    0.003968   0.000390  -0.002331  -0.000498  -0.000200
   10  C  2  Z   -0.001349  -0.000458  -0.000676  -0.000054  -0.000070
   11  C  3  S   -0.013258   0.011591  -0.087256  -0.146902   0.976985
   12  C  3  S   -0.000308   0.002619  -0.006612  -0.012532   0.035160
   13  C  3  X   -0.000299   0.000918  -0.002436  -0.002369  -0.000030
   14  C  3  Y   -0.000060   0.000409  -0.003757   0.002829  -0.000237
   15  C  3  Z   -0.000295  -0.000266  -0.000035   0.001349   0.000739
   16  H  4  S   -0.000041   0.001822  -0.006195  -0.001811  -0.000790
   17  H  5  S    0.000101   0.001785  -0.006168  -0.001951  -0.000748
   18  C  6  S   -0.033373  -0.086975  -0.318300   0.928058   0.112668
   19  C  6  S   -0.006911  -0.003644  -0.011332   0.035481  -0.001581
   20  C  6  X   -0.003955  -0.000279  -0.000435  -0.000158   0.001681
   21  C  6  Y    0.000034  -0.000449  -0.000055   0.001078  -0.003579
   22  C  6  Z   -0.001620   0.000077   0.000194   0.000267  -0.001263
   23  H  7  S   -0.000088  -0.000178   0.000632   0.001113  -0.006545
   24  H  8  S    0.000154  -0.000095   0.000682   0.001018  -0.006713
   25  C  9  S    0.990334   0.035912   0.004499   0.039178   0.019450
   26  C  9  S    0.037573  -0.003757   0.000926  -0.004785  -0.000143
   27  C  9  X   -0.000460  -0.001666  -0.001445   0.003454   0.000608
   28  C  9  Y    0.000749  -0.003723  -0.000988  -0.000187  -0.000416
   29  C  9  Z   -0.000192   0.001078  -0.000319   0.001725   0.000028
   30  H 10  S    0.000406  -0.006427  -0.001270  -0.001184  -0.000268
   31  H 11  S    0.000263  -0.006596  -0.001410  -0.001000  -0.000194
   32  H 12  S    0.000257   0.000660   0.002154  -0.006333  -0.000765
   33  H 13  S    0.000346   0.000449   0.001991  -0.006334  -0.000661
   34  H 14  S   -0.006759  -0.000231  -0.000075  -0.000254  -0.000077
   35  H 15  S   -0.006708  -0.000111  -0.000132  -0.000146  -0.000302
   36  BR16  S   -0.000000   0.000000   0.000000  -0.000001  -0.000000
   37  BR16  S   -0.000000  -0.000000  -0.000001   0.000002   0.000000
   38  BR16  X   -0.000001   0.000000   0.000000  -0.000002  -0.000000
   39  BR16  Y    0.000001  -0.000000  -0.000001   0.000002  -0.000000
   40  BR16  Z   -0.000000  -0.000000  -0.000000   0.000000   0.000000
   41  BR16  S    0.000000  -0.000002  -0.000004   0.000014   0.000000
   42  BR16  X    0.000002  -0.000000  -0.000002   0.000005   0.000001
   43  BR16  Y   -0.000004   0.000001   0.000003  -0.000008   0.000000
   44  BR16  Z    0.000001   0.000000   0.000000  -0.000001  -0.000000
   45  BR16 XX   -0.000002   0.000001   0.000002  -0.000008  -0.000000
   46  BR16 YY   -0.000001   0.000001   0.000002  -0.000008  -0.000000
   47  BR16 ZZ   -0.000001   0.000001   0.000002  -0.000008  -0.000000
   48  BR16 XY   -0.000000   0.000000   0.000000  -0.000000  -0.000000
   49  BR16 XZ   -0.000000   0.000000  -0.000000  -0.000000  -0.000000
   50  BR16 YZ   -0.000000  -0.000000  -0.000000   0.000000  -0.000000
   51  BR16  S   -0.000011  -0.000006  -0.000015   0.000047   0.000001
   52  BR16  X   -0.000025   0.000003   0.000010  -0.000034  -0.000004
   53  BR16  Y    0.000025  -0.000009  -0.000016   0.000053   0.000000
   54  BR16  Z   -0.000009  -0.000001  -0.000002   0.000004   0.000001
   55  H 17  S    0.000140  -0.000001   0.000003   0.000002   0.000006

                     11         12         13         14         15
                   -9.2098    -6.9048    -6.8916    -6.8916    -2.2901
                     A          A          A          A          A   
    1  C  1  S   -0.000001   0.000000  -0.000001   0.000001  -0.000000
    2  C  1  S    0.000003   0.000000   0.000008  -0.000006   0.000004
    3  C  1  X   -0.000000   0.000000  -0.000000   0.000000   0.000001
    4  C  1  Y   -0.000003   0.000000  -0.000007   0.000005  -0.000003
    5  C  1  Z   -0.000001   0.000001  -0.000001   0.000000   0.000001
    6  C  2  S    0.000001   0.000002   0.000003  -0.000002  -0.000000
    7  C  2  S   -0.000013  -0.000012  -0.000035   0.000020  -0.000015
    8  C  2  X   -0.000001   0.000002   0.000001   0.000000   0.000004
    9  C  2  Y    0.000007   0.000008   0.000019  -0.000010   0.000005
   10  C  2  Z   -0.000004  -0.000003  -0.000009   0.000005  -0.000001
   11  C  3  S    0.000003   0.000000   0.000004  -0.000003  -0.000000
   12  C  3  S   -0.000023  -0.000004  -0.000042   0.000036  -0.000004
   13  C  3  X   -0.000003  -0.000002  -0.000005   0.000006   0.000002
   14  C  3  Y    0.000013   0.000002   0.000022  -0.000020   0.000002
   15  C  3  Z    0.000003   0.000003   0.000008  -0.000007   0.000001
   16  H  4  S   -0.000000  -0.000000  -0.000000   0.000000  -0.000000
   17  H  5  S    0.000000  -0.000000  -0.000000   0.000000  -0.000000
   18  C  6  S   -0.000021   0.000009  -0.000034   0.000019  -0.000008
   19  C  6  S    0.000165  -0.000053   0.000319  -0.000200   0.000089
   20  C  6  X   -0.000094   0.000017  -0.000188   0.000126  -0.000043
   21  C  6  Y   -0.000054   0.000054  -0.000107   0.000031  -0.000040
   22  C  6  Z    0.000042  -0.000015   0.000085  -0.000055   0.000024
   23  H  7  S    0.000003  -0.000000   0.000007  -0.000005   0.000002
   24  H  8  S    0.000009  -0.000002   0.000018  -0.000011   0.000006
   25  C  9  S   -0.000005  -0.000001  -0.000015   0.000015  -0.000018
   26  C  9  S    0.000044   0.000016   0.000172  -0.000147   0.000251
   27  C  9  X    0.000035   0.000023   0.000118  -0.000095   0.000132
   28  C  9  Y    0.000009   0.000019   0.000003   0.000036  -0.000083
   29  C  9  Z   -0.000010   0.000003  -0.000049   0.000041  -0.000070
   30  H 10  S    0.000002   0.000001   0.000005  -0.000004   0.000004
   31  H 11  S    0.000004   0.000001   0.000011  -0.000010   0.000012
   32  H 12  S   -0.000021  -0.000003  -0.000021   0.000046  -0.000003
   33  H 13  S   -0.000367   0.000117  -0.000755   0.000466  -0.000227
   34  H 14  S   -0.000009  -0.000009  -0.000037  -0.000001  -0.000025
   35  H 15  S   -0.000084  -0.000016  -0.000400   0.000351  -0.000741
   36  BR16  S    0.170455  -0.001954   0.000001  -0.000003  -0.000221
   37  BR16  S   -0.524716   0.006056  -0.000003   0.000009   0.000617
   38  BR16  X   -0.004213  -0.394410   0.128964  -0.047022   0.001380
   39  BR16  Y   -0.001404  -0.132155  -0.319277   0.235135   0.000466
   40  BR16  Z   -0.000395  -0.036590  -0.236977  -0.342387   0.000127
   41  BR16  S    2.305921  -0.025630   0.000016  -0.000041  -0.003771
   42  BR16  X    0.010549   1.006053  -0.329092   0.119992  -0.003453
   43  BR16  Y    0.003515   0.337097   0.814733  -0.600019  -0.001166
   44  BR16  Z    0.000989   0.093333   0.604721   0.873706  -0.000318
   45  BR16 XX   -0.549587   0.010382  -0.002173   0.000797   0.838346
   46  BR16 YY   -0.552032   0.004063   0.001789  -0.001313  -0.348588
   47  BR16 ZZ   -0.552319   0.003329   0.000370   0.000546  -0.487203
   48  BR16 XY    0.001067   0.002748   0.002683  -0.002132   0.517929
   49  BR16 XZ    0.000296   0.000766   0.002185   0.003369   0.143556
   50  BR16 YZ    0.000100   0.000256   0.001059   0.000895   0.048012
   51  BR16  S    0.030967   0.004887   0.000009  -0.000003  -0.007017
   52  BR16  X    0.002921   0.048714  -0.013801   0.005036  -0.009656
   53  BR16  Y    0.000985   0.016323   0.034169  -0.025162  -0.003228
   54  BR16  Z    0.000273   0.004521   0.025349   0.036624  -0.000900
   55  H 17  S   -0.005427  -0.012784   0.000007  -0.000013   0.027204

                     16         17         18         19         20
                   -2.2852    -2.2852    -2.2717    -2.2717    -1.0860
                     A          A          A          A          A   
    1  C  1  S    0.000000  -0.000000  -0.000000  -0.000000  -0.101705
    2  C  1  S   -0.000001   0.000000   0.000002   0.000001   0.265092
    3  C  1  X   -0.000000   0.000000  -0.000000  -0.000000   0.003767
    4  C  1  Y    0.000001  -0.000000  -0.000002  -0.000001  -0.061217
    5  C  1  Z   -0.000001   0.000000  -0.000000  -0.000000  -0.000206
    6  C  2  S   -0.000000   0.000000  -0.000000  -0.000000  -0.106845
    7  C  2  S    0.000006  -0.000002  -0.000003  -0.000002   0.278040
    8  C  2  X   -0.000001   0.000000  -0.000001  -0.000001  -0.057992
    9  C  2  Y   -0.000003   0.000001   0.000001   0.000000  -0.025263
   10  C  2  Z   -0.000000   0.000000  -0.000001  -0.000000   0.010997
   11  C  3  S    0.000000  -0.000000   0.000000   0.000000  -0.105597
   12  C  3  S   -0.000001   0.000000  -0.000006  -0.000005   0.274460
   13  C  3  X   -0.000001   0.000000  -0.000000  -0.000001   0.060635
   14  C  3  Y    0.000000  -0.000000   0.000002   0.000002  -0.017868
   15  C  3  Z   -0.000001   0.000001   0.000000   0.000001  -0.011114
   16  H  4  S   -0.000000   0.000000  -0.000000   0.000000   0.048336
   17  H  5  S    0.000000  -0.000000   0.000000  -0.000000   0.048323
   18  C  6  S   -0.000004   0.000001  -0.000013  -0.000006  -0.109846
   19  C  6  S    0.000036  -0.000011   0.000133   0.000074   0.285153
   20  C  6  X   -0.000013   0.000003  -0.000063  -0.000036   0.034197
   21  C  6  Y   -0.000027   0.000009  -0.000071  -0.000030   0.052999
   22  C  6  Z    0.000009  -0.000003   0.000033   0.000016   0.026383
   23  H  7  S    0.000000  -0.000000   0.000002   0.000001   0.046608
   24  H  8  S    0.000001  -0.000000   0.000006   0.000003   0.055301
   25  C  9  S    0.000010  -0.000005  -0.000004  -0.000004  -0.110962
   26  C  9  S   -0.000107   0.000047   0.000049   0.000045   0.288686
   27  C  9  X   -0.000056   0.000025   0.000028   0.000024  -0.038991
   28  C  9  Y    0.000047  -0.000024  -0.000015  -0.000021   0.049250
   29  C  9  Z    0.000025  -0.000012  -0.000012  -0.000012  -0.026232
   30  H 10  S   -0.000001   0.000001   0.000001   0.000001   0.047515
   31  H 11  S   -0.000005   0.000002   0.000003   0.000003   0.056290
   32  H 12  S   -0.000000  -0.000001   0.000001  -0.000012   0.056903
   33  H 13  S   -0.000093   0.000028  -0.000351  -0.000188   0.048456
   34  H 14  S    0.000009   0.000001  -0.000006   0.000005   0.057774
   35  H 15  S    0.000276  -0.000123  -0.000127  -0.000120   0.050522
   36  BR16  S    0.000000   0.000000   0.000000  -0.000000  -0.000124
   37  BR16  S   -0.000000  -0.000000  -0.000000   0.000000   0.000392
   38  BR16  X   -0.000572   0.000042  -0.000001  -0.000001   0.000033
   39  BR16  Y    0.001544  -0.000574   0.000002   0.000003   0.000119
   40  BR16  Z    0.000555   0.001640   0.000003  -0.000002   0.000004
   41  BR16  S    0.000002   0.000000   0.000001  -0.000002  -0.001846
   42  BR16  X    0.001536  -0.000113   0.000003   0.000002  -0.000097
   43  BR16  Y   -0.004145   0.001541  -0.000005  -0.000008  -0.000355
   44  BR16  Z   -0.001490  -0.004403  -0.000007   0.000005  -0.000012
   45  BR16 XX   -0.536334   0.037918  -0.093557  -0.005237   0.000411
   46  BR16 YY    0.487714  -0.181354  -0.630863  -0.457184   0.000373
   47  BR16 ZZ    0.048619   0.143436   0.724420   0.462422   0.000463
   48  BR16 XY    0.735787  -0.304893   0.293608   0.104457  -0.000008
   49  BR16 XZ    0.273039   0.893098   0.100535  -0.311563  -0.000004
   50  BR16 YZ    0.179237   0.269808  -0.531667   0.781088  -0.000002
   51  BR16  S   -0.000003  -0.000002   0.000005   0.000002   0.003195
   52  BR16  X   -0.000030  -0.000000  -0.000001  -0.000002   0.000247
   53  BR16  Y    0.000069  -0.000027   0.000008   0.000005   0.001030
   54  BR16  Z    0.000026   0.000076   0.000001  -0.000001   0.000030
   55  H 17  S    0.000002   0.000009  -0.000002   0.000004   0.000661

                     21         22         23         24         25
                   -0.9165    -0.9150    -0.8725    -0.7422    -0.7226
                     A          A          A          A          A   
    1  C  1  S   -0.083884   0.129514  -0.008794  -0.006366  -0.118465
    2  C  1  S    0.241224  -0.372831   0.025927   0.020129   0.377722
    3  C  1  X   -0.102072  -0.066593  -0.000710  -0.117747  -0.002005
    4  C  1  Y   -0.006822  -0.003570   0.002090   0.000508   0.143568
    5  C  1  Z    0.013944   0.009195   0.000113   0.078091  -0.003923
    6  C  2  S    0.094200   0.116513  -0.000357   0.067938   0.096378
    7  C  2  S   -0.270230  -0.336053   0.001181  -0.214907  -0.307497
    8  C  2  X   -0.033427   0.027581  -0.001926  -0.023475  -0.136577
    9  C  2  Y    0.092365  -0.075532   0.007870  -0.104198   0.051498
   10  C  2  Z   -0.007452   0.005601  -0.000581   0.100433   0.035078
   11  C  3  S   -0.145195  -0.038433  -0.001549  -0.059949   0.102249
   12  C  3  S    0.417384   0.109618   0.004707   0.189573  -0.325945
   13  C  3  X    0.010010  -0.027720   0.000900  -0.027044   0.131172
   14  C  3  Y    0.030227  -0.118308   0.007996   0.108889   0.056571
   15  C  3  Z    0.001554  -0.009507   0.000718   0.097190  -0.044646
   16  H  4  S    0.066449  -0.106514   0.008303  -0.024455   0.187094
   17  H  5  S    0.069374  -0.104537   0.008347   0.043455   0.183300
   18  C  6  S   -0.010645  -0.143409   0.006447   0.112270  -0.046491
   19  C  6  S    0.030689   0.412099  -0.019268  -0.355228   0.148811
   20  C  6  X   -0.104105   0.003163  -0.003481   0.077747   0.093252
   21  C  6  Y    0.065386  -0.001823  -0.002343   0.046673  -0.113507
   22  C  6  Z    0.000355   0.018499  -0.000937   0.122238  -0.027334
   23  H  7  S    0.119195   0.029545   0.001926   0.075280  -0.166343
   24  H  8  S    0.111780   0.034246   0.001116   0.123801  -0.154333
   25  C  9  S    0.134615  -0.052248   0.006494  -0.113893  -0.037102
   26  C  9  S   -0.387134   0.150283  -0.019262   0.360751   0.118886
   27  C  9  X   -0.039781  -0.089007   0.003920   0.082879  -0.087106
[...]
                   Z -0.00000981  0.00000259 -0.00000858  0.00000294  0.00000585
 17   H            X -0.00033672  0.00042840 -0.00001714 -0.00045291 -0.00026405
                   Y  0.00086037 -0.00064232  0.00032668  0.00053567  0.00049465
                   Z  0.00025403 -0.00014212  0.00022235  0.00000243 -0.00023529

 TRANS. SAYVETZ    X -0.00000000 -0.00000003 -0.00000017 -0.00000007 -0.00000002
                   Y  0.00000004 -0.00000007 -0.00000012  0.00000015 -0.00000002
                   Z  0.00000001 -0.00000007 -0.00000008  0.00000006 -0.00000003
               TOTAL  0.00000005  0.00000010  0.00000022  0.00000018  0.00000004

   ROT. SAYVETZ    X  0.00001066 -0.00004937 -0.00005486 -0.00004839 -0.00003724
                   Y  0.00003048  0.00016827  0.00017259 -0.00003227  0.00002205
                   Z -0.00004970  0.00019348  0.00012120 -0.00009610 -0.00001997
               TOTAL  0.00005927  0.00026112  0.00021792  0.00011233  0.00004766

                           41          42          43          44          45
       FREQUENCY:      3131.24     3609.57     3612.69     3615.71     3617.49  
        SYMMETRY:         A           A           A           A           A   
    REDUCED MASS:      1.02052     1.06422     1.06454     1.06754     1.06790
    IR INTENSITY:      0.06426     0.07935     0.02412     0.16104     0.10980

  1   C            X  0.00000536 -0.00016245 -0.00436462 -0.00156932  0.00448392
                   Y -0.00000489 -0.00732446  0.03754216 -0.01341175 -0.03255569
                   Z -0.00000317 -0.00106510  0.00890489 -0.00112842 -0.00829923
  2   C            X -0.00000855  0.02498196 -0.02405293  0.03910896 -0.01735420
                   Y -0.00000514  0.00966090 -0.01356444  0.02008497 -0.00665422
                   Z -0.00000398 -0.00665764  0.00878520 -0.01497031  0.00638829
  3   C            X -0.00000726 -0.00222527  0.03748935  0.03993817 -0.01326722
                   Y -0.00000268  0.00086028 -0.00402012 -0.00249405  0.00351917
                   Z  0.00000530  0.00166492 -0.01449582 -0.01577041  0.00828186
  4   H            X -0.00002808 -0.01242131  0.06360459 -0.02411076 -0.05442177
                   Y  0.00000116  0.05529032 -0.27836583  0.09966559  0.23446777
                   Z -0.00002267 -0.04931705  0.25155245 -0.09022259 -0.21364515
  5   H            X -0.00002856  0.00287214 -0.01910501  0.00512326  0.01812619
                   Y -0.00001499  0.02826999 -0.15224480  0.04641379  0.13058692
                   Z  0.00003071  0.06491965 -0.35226075  0.10968282  0.30426799
  6   C            X  0.00000612 -0.00448098 -0.01198110 -0.00821747 -0.02268728
                   Y -0.00000235 -0.01103097 -0.01679374 -0.00863153 -0.03468741
                   Z  0.00000632 -0.00809104 -0.01620498 -0.00979990 -0.03865234
  7   H            X -0.00003047  0.01774121 -0.30421468 -0.31518376  0.09999779
                   Y -0.00003760 -0.00819460  0.12580278  0.13065949 -0.04308149
                   Z -0.00002772  0.01237382 -0.20827392 -0.21717358  0.06897910
  8   H            X -0.00001228  0.00887420 -0.12312905 -0.12951192  0.04924089
                   Y -0.00002153  0.00718054 -0.08612830 -0.09092197  0.03791124
                   Z -0.00000185 -0.02657205  0.37463876  0.39822088 -0.14869197
  9   C            X  0.00002552 -0.03586360 -0.00617177  0.01303622  0.00703913
                   Y -0.00003578  0.04510782  0.01094217 -0.01897025 -0.00564731
                   Z -0.00001729 -0.02163308 -0.00462889  0.01142347  0.00565722
 10   H            X  0.00006268 -0.20821252  0.19917661 -0.31175808  0.13322684
                   Y -0.00007032 -0.06964533  0.06909513 -0.10698497  0.04510223
                   Z  0.00006470 -0.17573420  0.16971018 -0.26609243  0.11406771
 11   H            X -0.00000127 -0.07335866  0.07960517 -0.12604239  0.05166443
                   Y -0.00003234 -0.06358698  0.06344363 -0.10263031  0.04468846
                   Z -0.00002419  0.25437172 -0.27161937  0.43479077 -0.18181635
 12   H            X -0.00010223  0.01141359  0.01478083  0.00653599  0.03391924
                   Y -0.00006309 -0.00959917 -0.01488313 -0.00777410 -0.03512548
                   Z  0.00000056  0.14479744  0.26932223  0.15750990  0.58366754
 13   H            X -0.00033428  0.06495166  0.11299077  0.06247603  0.21809621
                   Y  0.00030632  0.12811885  0.21311642  0.11584664  0.41620170
                   Z -0.00013107 -0.04637352 -0.07851621 -0.04283492 -0.15394354
 14   H            X  0.00019746  0.05426503  0.01378984 -0.02344461 -0.00624054
                   Y -0.00000786 -0.19396139 -0.03979807  0.07993952  0.03509266
                   Z -0.00011958  0.58992182  0.12731691 -0.24820928 -0.10054940
 15   H            X  0.00000095  0.34498087  0.07049952 -0.12395384 -0.04620973
                   Y  0.00006980 -0.31755099 -0.06760080  0.11493126  0.04016955
                   Z  0.00045808 -0.34231943 -0.07187584  0.12441851  0.04458210
 16   BR           X -0.01174347 -0.00000081  0.00000161  0.00000127  0.00000387
                   Y -0.00396805 -0.00000097 -0.00000540 -0.00000424 -0.00001144
                   Z -0.00246452 -0.00000006  0.00000096  0.00000085  0.00000218
 17   H            X  0.91960309  0.00030714  0.00000213 -0.00012042 -0.00016811
                   Y  0.31119599 -0.00005515  0.00002780  0.00007591  0.00010448
                   Z  0.19291133 -0.00001474 -0.00003770 -0.00002789 -0.00007888

 TRANS. SAYVETZ    X  0.00000002 -0.00000022  0.00000013  0.00000019  0.00000004
                   Y -0.00000001  0.00000011  0.00000003 -0.00000002 -0.00000012
                   Z  0.00000001 -0.00000054  0.00000007 -0.00000021  0.00000010
               TOTAL  0.00000003  0.00000060  0.00000015  0.00000028  0.00000016

   ROT. SAYVETZ    X  0.00000435  0.00001915 -0.00001675  0.00000044 -0.00000955
                   Y -0.00002763 -0.00001445  0.00001478 -0.00004492  0.00002690
                   Z  0.00002435 -0.00005108  0.00000168 -0.00000674  0.00000598
               TOTAL  0.00003709  0.00005643  0.00002240  0.00004542  0.00002916

                           46          47          48          49          50
       FREQUENCY:      3624.31     3729.53     3731.65     3735.09     3737.20  
        SYMMETRY:         A           A           A           A           A   
    REDUCED MASS:      1.07242     1.11434     1.11389     1.11068     1.11034
    IR INTENSITY:      0.02450     0.01122     0.01103     0.01685     0.02532

  1   C            X  0.00452722  0.00725974  0.00462059 -0.00318287 -0.00728330
                   Y -0.04546920 -0.01128072 -0.00570827  0.00547723  0.01156984
                   Z -0.01054472  0.04906219  0.03390628 -0.02225023 -0.05242682
  2   C            X -0.02594541 -0.01889838  0.00686304  0.01487638 -0.01164927
                   Y -0.01147898 -0.00238808  0.00146012  0.00116185 -0.00082227
                   Z  0.01118927 -0.05371308  0.01626758  0.04599683 -0.03800676
  3   C            X  0.03310375 -0.01113662 -0.01665085 -0.01880818 -0.00375844
                   Y -0.00155882  0.01168429  0.01589106  0.01945793  0.00356418
                   Z -0.01539534 -0.03119953 -0.04061942 -0.05180648 -0.00828335
  4   H            X -0.07488183 -0.06248493 -0.04224272  0.02803712  0.06819925
                   Y  0.31638497  0.27117987  0.17614202 -0.13113761 -0.29325863
                   Z -0.28917762 -0.24202692 -0.15734809  0.11472069  0.26008192
  5   H            X  0.02393429 -0.01900407 -0.01201122  0.01060859  0.01922977
                   Y  0.17178992 -0.14259013 -0.10449546  0.06440590  0.16055505
                   Z  0.40308442 -0.32538543 -0.23659664  0.14698734  0.36031752
  6   C            X  0.00973633 -0.00005168 -0.01046823 -0.00039916 -0.01625620
                   Y  0.01539137 -0.00116746 -0.02248820 -0.00157808 -0.03665639
                   Z  0.01973408  0.00212235  0.02479795  0.00136402  0.04667303
  7   H            X -0.23978538  0.20604716  0.28226407  0.34669286  0.06380508
                   Y  0.10069485 -0.08553835 -0.11601042 -0.14232215 -0.02413622
                   Z -0.16638623  0.13801521  0.18951925  0.23206453  0.04225576
  8   H            X -0.10845681 -0.07356408 -0.09377332 -0.12786921 -0.01885554
                   Y -0.07737073 -0.05023029 -0.06520103 -0.08714015 -0.01594276
                   Z  0.33588122  0.22308147  0.28327310  0.37860069  0.05585411
  9   C            X -0.00855452 -0.01399251  0.02158744 -0.01490496  0.00086068
                   Y  0.01190460  0.00815090 -0.01190364  0.00723488 -0.00035385
                   Z -0.00890139  0.03685667 -0.05592262  0.04307850 -0.00011827
 10   H            X  0.18731365  0.32307886 -0.10717534 -0.26594331  0.22025305
                   Y  0.06396293  0.11138898 -0.03545279 -0.09258621  0.07525073
                   Z  0.16089240  0.26903407 -0.08828196 -0.22257194  0.18270612
 11   H            X  0.08039760 -0.10349102  0.03032478  0.09553390 -0.08182365
                   Y  0.06808407 -0.08509265  0.02174515  0.08007354 -0.06474193
                   Z -0.28196518  0.35388302 -0.10164970 -0.31913057  0.26887639
 12   H            X -0.01658842 -0.00325207 -0.01006168 -0.00363353 -0.02468275
                   Y  0.01740790  0.00203999  0.01317731  0.00240520  0.02241496
                   Z -0.27676470 -0.02005226 -0.20017302 -0.01032415 -0.40495314
 13   H            X -0.08972501  0.00751239  0.12870691  0.00818968  0.21407104
                   Y -0.17165988  0.01193099  0.24496565  0.01321519  0.40639925
                   Z  0.06398800 -0.00447993 -0.08644225 -0.00519290 -0.14451370
 14   H            X  0.01512476 -0.02443642  0.03590098 -0.03014478 -0.00320262
                   Y -0.05415689  0.08034470 -0.12590140  0.10563324 -0.00056378
                   Z  0.16682977 -0.24749961  0.37902717 -0.30962974 -0.00403277
 15   H            X  0.06949363  0.18794485 -0.28280948  0.20540044 -0.00361631
                   Y -0.06382765 -0.17300576  0.26243646 -0.19071125  0.00496474
                   Z -0.06968641 -0.18177315  0.27538662 -0.20054019  0.00442924
 16   BR           X -0.00000103 -0.00000006  0.00000222 -0.00000062  0.00000318
                   Y  0.00000448  0.00000028 -0.00000700  0.00000040 -0.00000998
                   Z -0.00000084 -0.00000068  0.00000188 -0.00000089  0.00000110
 17   H            X  0.00004487  0.00005702 -0.00016619  0.00011356 -0.00013674
                   Y -0.00003563  0.00002953  0.00001036  0.00004591  0.00010742
                   Z  0.00002264  0.00000472 -0.00002851  0.00002081 -0.00002195

 TRANS. SAYVETZ    X  0.00000002 -0.00000003  0.00000003 -0.00000002 -0.00000001
                   Y -0.00000002  0.00000000 -0.00000002  0.00000002 -0.00000001
                   Z  0.00000021  0.00000003  0.00000005 -0.00000006 -0.00000000
               TOTAL  0.00000021  0.00000004  0.00000006  0.00000007  0.00000001

   ROT. SAYVETZ    X  0.00001004 -0.00006521  0.00009530 -0.00006643 -0.00000973
                   Y  0.00002124 -0.00004451  0.00004543 -0.00000278 -0.00001866
                   Z  0.00000387 -0.00001694  0.00002671 -0.00002668 -0.00000658
               TOTAL  0.00002381  0.00008075  0.00010890  0.00007164  0.00002205

                           51
       FREQUENCY:      3742.80  
        SYMMETRY:         A   
    REDUCED MASS:      1.10946
    IR INTENSITY:      0.24024

  1   C            X -0.00461778
                   Y  0.00708622
                   Z -0.03391159
  2   C            X -0.00951610
                   Y -0.00069120
                   Z -0.03045098
  3   C            X -0.01172843
                   Y  0.01290259
                   Z -0.03556955
  4   H            X  0.04297967
                   Y -0.19053783
                   Z  0.16787000
  5   H            X  0.01241535
                   Y  0.10498026
                   Z  0.23543516
  6   C            X  0.01506251
                   Y  0.03428775
                   Z -0.04565444
  7   H            X  0.22847280
                   Y -0.09400213
                   Z  0.15350878
  8   H            X -0.09349698
                   Y -0.06008500
                   Z  0.27115359
  9   C            X  0.00981825
                   Y -0.00467228
                   Z -0.03032890
 10   H            X  0.17463345
                   Y  0.05946945
                   Z  0.14574754
 11   H            X -0.06646284
                   Y -0.05413305
                   Z  0.21670533
 12   H            X  0.02595031
                   Y -0.01991024
                   Z  0.40691859
 13   H            X -0.19922846
                   Y -0.37929776
                   Z  0.13588898
 14   H            X  0.02492194
                   Y -0.07703462
                   Z  0.22561095
 15   H            X -0.13837487
                   Y  0.12762834
                   Z  0.13577894
 16   BR           X -0.00000245
                   Y  0.00000878
                   Z  0.00000026
 17   H            X  0.00006822
                   Y -0.00016472
                   Z -0.00004310

 TRANS. SAYVETZ    X -0.00000002
                   Y  0.00000002
                   Z  0.00000007
               TOTAL  0.00000007

   ROT. SAYVETZ    X  0.00005412
                   Y  0.00001371
                   Z  0.00002298
               TOTAL  0.00006037

 REFERENCE ON SAYVETZ CONDITIONS - A. SAYVETZ, J.CHEM.PHYS., 7, 383-389(1939).

 NOTE - THE MODES J,K ARE ORTHONORMALIZED ACCORDING TO
 SUM ON I   M(I) * (X(I,J)*X(I,K) + Y(I,J)*Y(I,K) + Z(I,J)*Z(I,K)) = DELTA(J,K)

  MODE FREQ(CM**-1)  SYMMETRY  RED. MASS  IR INTENS.
     1      20.297    A        1.683317    0.335904
     2       8.485    A        4.819430    0.009151
     3       6.769    A        6.453975    0.001078
     4       0.028    A        8.763237    0.000013
     5       0.183    A        8.832527    0.000000
     6       0.420    A        8.819674    0.000001
     7       2.010    A        2.499004    0.075307
     8      15.171    A        1.951620    0.033766
     9      23.589    A        2.435404    0.022891
    10      29.860    A        1.574555    0.296091
    11      42.797    A        4.795833    0.033267
    12      80.778    A        1.037575    0.952580
    13     255.513    A        1.613545    0.000238
    14     645.296    A        1.746980    0.042300
    15     731.761    A        2.647360    0.001334
    16     899.938    A        1.163829    0.013834
    17     961.499    A        1.502319    0.004292
    18    1010.135    A        1.832776    0.009403
    19    1051.279    A        3.644493    0.000364
    20    1093.617    A        1.952815    0.004085
    21    1096.468    A        1.994039    0.008488
    22    1164.085    A        1.210948    0.007655
    23    1195.220    A        1.212543    0.003341
    24    1250.593    A        1.424543    0.003135
    25    1281.598    A        1.611239    0.001247
    26    1444.679    A        1.353465    0.005284
    27    1447.284    A        1.459719    0.017250
    28    1470.676    A        1.461902    0.007800
    29    1494.827    A        1.320352    0.014361
    30    1520.225    A        1.105950    0.017814
    31    1577.483    A        1.343169    0.000856
    32    1612.184    A        1.589027    0.003023
    33    1647.706    A        1.585430    0.000182
    34    1660.338    A        1.583589    0.122016
    35    1661.443    A        1.579113    0.112999
    36    1821.927    A        1.089789    0.004608
    37    1822.804    A        1.088049    0.001863
    38    1836.529    A        1.124284    0.001383
    39    1837.846    A        1.126890    0.006089
    40    1855.800    A        1.125936    0.000911
    41    3131.239    A        1.020525    0.064256
    42    3609.574    A        1.064224    0.079353
    43    3612.686    A        1.064538    0.024124
    44    3615.713    A        1.067542    0.161037
    45    3617.490    A        1.067897    0.109799
    46    3624.314    A        1.072423    0.024495
    47    3729.531    A        1.114336    0.011220
    48    3731.653    A        1.113888    0.011034
    49    3735.091    A        1.110679    0.016852
    50    3737.199    A        1.110335    0.025316
    51    3742.797    A        1.109461    0.240241

     -------------------------------
     THERMOCHEMISTRY AT T=  298.15 K
     -------------------------------

 USING IDEAL GAS, RIGID ROTOR, HARMONIC NORMAL MODE APPROXIMATIONS.
 P=  1.01325E+05 PASCAL.
 ALL FREQUENCIES ARE SCALED BY   1.00000
 THE MOMENTS OF INERTIA ARE (IN AMU*BOHR**2)
            294.75050          3500.52101          3705.85125
 THE ROTATIONAL SYMMETRY NUMBER IS  1.0
 THE ROTATIONAL CONSTANTS ARE (IN GHZ)
      6.11734     0.51509     0.48655
   1 IMAGINARY FREQUENCY VIBRATION(S) IS(ARE) EXCLUDED
     FROM THE FOLLOWING THERMOCHEMICAL ANALYSIS.
      8 -     51 VIBRATIONAL MODES ARE USED IN THERMOCHEMISTRY.
 THE HARMONIC ZERO POINT ENERGY IS (SCALED BY   1.000)
        0.176395 HARTREE/MOLECULE    38714.118529 CM**-1/MOLECULE 
      110.689330 KCAL/MOL              463.124158 KJ/MOL

               Q               LN Q
 ELEC.     1.00000E+00       0.000000
 TRANS.    7.22120E+07      18.095117
 ROT.      6.99969E+05      13.458792
 VIB.      2.64399E+04      10.182629
 TOT.      1.33644E+18      41.736538

              E         H         G         CV        CP        S
           KJ/MOL    KJ/MOL    KJ/MOL   J/MOL-K   J/MOL-K   J/MOL-K
 ELEC.      0.000     0.000     0.000     0.000     0.000     0.000
 TRANS.     3.718     6.197   -44.857    12.472    20.786   171.236
 ROT.       3.718     3.718   -33.364    12.472    12.472   124.374
 VIB.     477.145   477.145   437.882    71.399    71.399   131.690
 TOTAL    484.582   487.061   359.662    96.342   104.656   427.299
 VIB. THERMAL CORRECTION E(T)-E(0) = H(T)-H(0) =     14021.126 J/MOL

              E         H         G         CV        CP        S
         KCAL/MOL  KCAL/MOL  KCAL/MOL CAL/MOL-K CAL/MOL-K CAL/MOL-K
 ELEC.      0.000     0.000     0.000     0.000     0.000     0.000
 TRANS.     0.889     1.481   -10.721     2.981     4.968    40.926
 ROT.       0.889     0.889    -7.974     2.981     2.981    29.726
 VIB.     114.040   114.040   104.656    17.065    17.065    31.475
 TOTAL    115.818   116.410    85.961    23.026    25.013   102.127
 VIB. THERMAL CORRECTION E(T)-E(0) = H(T)-H(0) =      3351.129 CAL/MOL

     *******************************************************
     * THIS IS NOT A STATIONARY POINT ON THE MOLECULAR PES *
     *     THE VIBRATIONAL ANALYSIS IS NOT VALID !!!       *
     *******************************************************
 ......END OF NORMAL COORDINATE ANALYSIS......
 STEP CPU TIME =     0.01 TOTAL CPU TIME =         97.1 (      1.6 MIN)
 TOTAL WALL CLOCK TIME=         97.5 SECONDS, CPU UTILIZATION IS    99.59%
               995759  WORDS OF DYNAMIC MEMORY USED
 EXECUTION OF GAMESS TERMINATED NORMALLY Sat Nov 13 16:40:03 2021
 DDI: 263640 bytes (0.3 MB / 0 MWords) used by master data server.

 ----------------------------------------
 CPU timing information for all processes
 ========================================
 0: 94.975 + 2.100 = 97.76
 ----------------------------------------
 ddikick.x: exited gracefully.
----- accounting info -----
Files used on the master node chemcompute-node-0.novalocal were:
-rw-r--r--. 1 chemcomp chemcomp     1210 Nov 13 16:38 /scratch/306030/341932.F05
-rw-rw-r--. 1 chemcomp chemcomp  6480576 Nov 13 16:39 /scratch/306030/341932.F08
-rw-rw-r--. 1 chemcomp chemcomp 85196800 Nov 13 16:40 /scratch/306030/341932.F10
-rw-rw-r--. 1 chemcomp chemcomp   628728 Nov 13 16:40 /scratch/306030/341932.F18
Sat Nov 13 16:40:06 UTC 2021
0.175u 0.097s 1:42.47 0.2%	0+0k 8+216io 0pf+0w
Finishing Up...
Looking for IR data...
Looking for Raman data...
vibramans not found
Looking for thermodynamics data...
Looking for UV-Vis data...
306030
