----- GAMESS execution script 'rungms' -----
This job is running on host chemcompute-node-0.novalocal
under operating system Linux at Sun Nov 14 02:32:16 UTC 2021
SLURM has assigned the following compute nodes to this run:
chemcompute-node-0
Available scratch disk space (Kbyte units) at beginning of the job is
Filesystem     1K-blocks     Used Available Use% Mounted on
/dev/sda1       62903276 18961668  43941608  31% /
GAMESS temporary binary files will be written to /scratch/306329
GAMESS supplementary output files will be written to /data/slurm/342239
Copying input file 342239.inp to your run's scratch directory...
The generated host list is
chemcompute-node-0.novalocal

 Distributed Data Interface kickoff program.
 Initiating 1 compute processes on 1 nodes to run the following command:
 /data/gamess-2019R1-ddi/gamess.00.x 342239 

          ******************************************************
          *         GAMESS VERSION = 30 JUN 2019 (R1)          *
          *             FROM IOWA STATE UNIVERSITY             *
          * M.W.SCHMIDT, K.K.BALDRIDGE, J.A.BOATZ, S.T.ELBERT, *
          *   M.S.GORDON, J.H.JENSEN, S.KOSEKI, N.MATSUNAGA,   *
          *          K.A.NGUYEN, S.J.SU, T.L.WINDUS,           *
          *       TOGETHER WITH M.DUPUIS, J.A.MONTGOMERY       *
          *         J.COMPUT.CHEM.  14, 1347-1363(1993)        *
          **************** 64 BIT LINUX VERSION ****************

  SINCE 1993, STUDENTS AND POSTDOCS WORKING AT IOWA STATE UNIVERSITY
  AND ALSO IN THEIR VARIOUS JOBS AFTER LEAVING ISU HAVE MADE IMPORTANT
  CONTRIBUTIONS TO THE CODE:
     IVANA ADAMOVIC, CHRISTINE AIKENS, YURI ALEXEEV, POOJA ARORA,
     ANDREY ASADCHEV, ROB BELL, PRADIPTA BANDYOPADHYAY, JONATHAN BENTZ,
     COLLEEN BERTONI, BRETT BODE, KURT BRORSEN, CALEB CARLIN, GALINA CHABAN,
     WEI CHEN, CHEOL HO CHOI, PAUL DAY, ALBERT DEFUSCO, NUWAN DESILVA,
     TIM DUDLEY, DMITRI FEDOROV, ALEX FINDLATER, GRAHAM FLETCHER, 
     MARK FREITAG, KURT GLAESEMANN, ANASTASIA GUNINA,
     DAN KEMP, GRANT MERRILL, NORIYUKI MINEZAWA, JONATHAN MULLIN,
     TAKESHI NAGATA, SEAN NEDD, HEATHER NETZLOFF, BOSILJKA NJEGIC, RYAN OLSON,
     MIKE PAK, BUU PHAM,
     SPENCER PRUITT, LUKE ROSKOP, JIM SHOEMAKER, LYUDMILA SLIPCHENKO,
     TONY SMITH, SAROM SOK LEANG, JIE SONG, TETSUYA TAKETSUGU, SIMON WEBB,
     PENG XU, SOOHAENG YOO, FEDERICO ZAHARIEV

  ADDITIONAL CODE HAS BEEN PROVIDED BY COLLABORATORS IN OTHER GROUPS:
     IOWA STATE UNIVERSITY:
          JOE IVANIC, AARON WEST, LAIMUTIS BYTAUTAS, KLAUS RUEDENBERG
     UNIVERSITY OF TOKYO: KIMIHIKO HIRAO, TAKAHITO NAKAJIMA,
          TAKAO TSUNEDA, MUNEAKI KAMIYA, SUSUMU YANAGISAWA,
          KIYOSHI YAGI, MAHITO CHIBA, SEIKEN TOKURA, NAOAKI KAWAKAMI
     UNIVERSITY OF AARHUS: FRANK JENSEN
     UNIVERSITY OF IOWA: VISVALDAS KAIRYS, HUI LI
     NATIONAL INST. OF STANDARDS AND TECHNOLOGY: WALT STEVENS, DAVID GARMER
     UNIVERSITY OF PISA: BENEDETTA MENNUCCI, JACOPO TOMASI
     UNIVERSITY OF MEMPHIS: HENRY KURTZ, PRAKASHAN KORAMBATH
     UNIVERSITY OF ALBERTA: TOBY ZENG, MARIUSZ KLOBUKOWSKI
     UNIVERSITY OF NEW ENGLAND: MARK SPACKMAN
     MIE UNIVERSITY: HIROAKI UMEDA
     NAT. INST. OF ADVANCED INDUSTRIAL SCIENCE AND TECHNOLOGY: KAZUO KITAURA
     MICHIGAN STATE UNIVERSITY:
          KAROL KOWALSKI, MARTA WLOCH, JEFFREY GOUR, JESSE LUTZ,
          WEI LI, JUN SHEN, J. EMILIANO DEUSTUA, PIOTR PIECUCH
     UNIVERSITY OF MINNESOTA:
          YINAN SHU
     UNIVERSITY OF SILESIA: MONIKA MUSIAL, STANISLAW KUCHARSKI
     FACULTES UNIVERSITAIRES NOTRE-DAME DE LA PAIX:
          OLIVIER QUINET, BENOIT CHAMPAGNE
     UNIVERSITY OF CALIFORNIA - SANTA BARBARA: BERNARD KIRTMAN
     INSTITUTE FOR MOLECULAR SCIENCE:
          KAZUYA ISHIMURA, MICHIO KATOUDA, AND SHIGERU NAGASE
     UNIVERSITY OF NOTRE DAME: ANNA POMOGAEVA, DAN CHIPMAN
     KYUSHU UNIVERSITY:
          HARUYUKI NAKANO,
          FENG LONG GU, JACEK KORCHOWIEC, MARCIN MAKOWSKI, AND YURIKO AOKI,
          HIROTOSHI MORI AND EISAKU MIYOSHI
     PENNSYLVANIA STATE UNIVERSITY:
          TZVETELIN IORDANOV, CHET SWALINA, JONATHAN SKONE,
          SHARON HAMMES-SCHIFFER
     WASEDA UNIVERSITY:
          MASATO KOBAYASHI, TOMOKO AKAMA, TSUGUKI TOUMA,
          TAKESHI YOSHIKAWA, YASUHIRO IKABATA, JUNJI SEINO,
          YUYA NAKAJIMA, HIROMI NAKAI
     NANJING UNIVERSITY: SHUHUA LI
     UNIVERSITY OF NEBRASKA:
          PEIFENG SU, DEJUN SI, NANDUN THELLAMUREGE, YALI WANG, HUI LI
     UNIVERSITY OF ZURICH: ROBERTO PEVERATI, KIM BALDRIDGE
     N. COPERNICUS UNIVERSITY AND JACKSON STATE UNIVERSITY:
          MARIA BARYSZ
     UNIVERSITY OF COPENHAGEN: Jimmy Kromann, CASPER STEINMANN
     TOKYO INSTITUTE OF TECHNOLOGY: HIROYA NAKATA
     NAGOYA UNIVERSITY: YOSHIO NISHIMOTO, STEPHAN IRLE
     MOSCOW STATE UNIVERSITY: VLADIMIR MIRONOV
     A.N.NESMEYANOV INSTITUTE OF ORGANOELEMENT COMPOUNDS OF RUSSIAN ACADEMY OF SCIENCES:
          IGOR S. GERASIMOV

 EXECUTION OF GAMESS BEGUN Sun Nov 14 02:32:16 2021

            ECHO OF THE FIRST FEW INPUT CARDS -
 INPUT CARD>!File created by the GAMESS Input Deck Generator Plugin for Avogadro            
 INPUT CARD> $BASIS GBASIS=STO NGAUSS=3 $END                                                
 INPUT CARD> $CONTRL SCFTYP=RHF RUNTYP=SADPOINT $END                                        
 INPUT CARD> $STATPT hssend=.t. OPTTOL=0.0005 NSTEP=50 $END                                 
 INPUT CARD> $STATPT HESS=calc ihrep=5 $END                                                 
 INPUT CARD> $FORCE nvib=2 $END                                                             
 INPUT CARD> $ZMAT DLC=.t. auto=.t. nonvdw(1)=2,12,3,13,17,2,2,3 $END                       
 INPUT CARD>!$ZMAT IFZMAT(1)=1,2,12,1,3,13 fvalue(1)=2.00,2.00 $END                         
 INPUT CARD> $DATA                                                                          
 INPUT CARD>Title                                                                           
 INPUT CARD>C1                                                                              
 INPUT CARD>C     6.0    -1.07305443    -0.85951573    -0.36702839                          
 INPUT CARD>C     6.0    -1.66045189     0.34879062     0.37893319                          
 INPUT CARD>C     6.0    -0.67190856     1.22730994     0.71058416                          
 INPUT CARD>C     6.0     0.70794111     0.71002722     0.29808000                          
 INPUT CARD>C     6.0     0.38712975    -0.44634485    -0.68464279                          
 INPUT CARD>H     1.0    -1.64094198    -1.11308169    -1.25877941                          
 INPUT CARD>H     1.0    -1.10229540    -1.71916223     0.30267203                          
 INPUT CARD>H     1.0     1.21571958     0.34078348     1.18922830                          
 INPUT CARD>H     1.0     1.32948256     1.48154831    -0.14891417                          
 INPUT CARD>H     1.0     1.07693505    -1.27765179    -0.56848186                          
 INPUT CARD>H     1.0     0.45776147    -0.09071622    -1.70844209                          
 INPUT CARD>B     5.0    -1.61247027     1.96470499    -0.79857200                          
 INPUT CARD>H     1.0    -0.67211056     2.62669873    -0.71830040                          
 INPUT CARD>H     1.0    -1.64838207     1.34378505    -1.77014732                          
 INPUT CARD>H     1.0    -2.58059239     2.48036218    -0.44325945                          
 INPUT CARD>H     1.0    -0.78177726     2.00779366     1.45413399                          
 INPUT CARD>C     6.0    -3.05734158     0.26744527     0.98342031                          
 INPUT CARD>H     1.0    -3.09647775    -0.57990307     1.66569519                          
 INPUT CARD>H     1.0    -3.80419612     0.11557226     0.20920716                          
 INPUT CARD>H     1.0    -3.29800344     1.17203939     1.53174639                          
 INPUT CARD> $END                                                                           
    1000000 WORDS OF MEMORY AVAILABLE

     BASIS OPTIONS
     -------------
     GBASIS=STO          IGAUSS=       3      POLAR=NONE    
     NDFUNC=       0     NFFUNC=       0     DIFFSP=       F
     NPFUNC=       0      DIFFS=       F     BASNAM=        


     RUN TITLE
     ---------
 Title                                                                           

 THE POINT GROUP OF THE MOLECULE IS C1      
 THE ORDER OF THE PRINCIPAL AXIS IS     0

 ATOM      ATOMIC                      COORDINATES (BOHR)
           CHARGE         X                   Y                   Z
 C           6.0    -2.0277788426       -1.6242492118       -0.6935830868
 C           6.0    -3.1377990879        0.6591186989        0.7160798968
 C           6.0    -1.2697230672        2.3192794886        1.3428093536
 C           6.0     1.3378147133        1.3417568896        0.5632895224
 C           6.0     0.7315691492       -0.8434694625       -1.2937872726
 H           1.0    -3.1009307039       -2.1034193961       -2.3787481639
 H           1.0    -2.0830362635       -3.2487455431        0.5719672008
 H           1.0     2.2973768841        0.6439873983        2.2473156238
 H           1.0     2.5123577439        2.7997203435       -0.2814069770
 H           1.0     2.0351121511       -2.4144117908       -1.0742749444
 H           1.0     0.8650437460       -0.1714287984       -3.2284874160
 B           5.0    -3.0471269736        3.7127540778       -1.5090822615
 H           1.0    -1.2701047919        4.9637408520       -1.3573909329
 H           1.0    -3.1149904354        2.5393855309       -3.3450933927
 H           1.0    -4.8766125031        4.6872048705       -0.8376389020
 H           1.0    -1.4773448048        3.7941798573        2.7479147905
 C           6.0    -5.7775378371        0.5053982770        1.8583949167
 H           1.0    -5.8514944746       -1.0958579017        3.1477074882
 H           1.0    -7.1888882704        0.2183999032        0.3953442071
 H           1.0    -6.2323228082        2.2148332939        2.8945809598

          INTERNUCLEAR DISTANCES (ANGS.)
          ------------------------------

                1 C          2 C          3 C          4 C          5 C     

   1 C       0.0000000    1.5367169 *  2.3826473 *  2.4653153 *  1.5503957 *
   2 C       1.5367169 *  0.0000000    1.3634539 *  2.3971472 *  2.4404968 *
   3 C       2.3826473 *  1.3634539 *  0.0000000    1.5302700 *  2.4226722 *
   4 C       2.4653153 *  2.3971472 *  1.5302700 *  0.0000000    1.5510836 *
   5 C       1.5503957 *  2.4404968 *  2.4226722 *  1.5510836 *  0.0000000  
   6 H       1.0872037 *  2.1953482 *  3.2085591    3.3563059    2.2107116 *
   7 H       1.0901127 *  2.1433113 *  3.0055488    3.0295113    2.1939102 *
   8 H       3.0168095    2.9881440 *  2.1396657 *  1.0901033 *  2.1948861 *
   9 H       3.3615976    3.2405973    2.1929298 *  1.0869049 *  2.2117428 *
  10 H       2.1995172 *  3.3220773    3.3119929    2.1995349 *  1.0864603 *
  11 H       2.1757391 *  3.0061819    2.9774209 *  2.1748358 *  1.0861057 *
  12 B       2.9074769 *  2.0000000 *  1.9250870 *  2.8567763 *  3.1344125  
  13 H       3.5267321    2.7147017 *  2.0000000 *  2.5712257 *  3.2506491  
  14 H       2.6747484 *  2.3682708 *  2.6685381 *  3.1986672    2.9199646 *
  15 H       3.6651421    2.4629772 *  2.5582355 *  3.8076400    4.1750754  
  16 H       3.4092430    2.1634271 *  1.0835554 *  2.2890870 *  3.4588301  
  17 C       2.6516312 *  1.5242449 *  2.5857437 *  3.8526515    3.8931110  
  18 H       2.8817339 *  2.1401866 *  3.1712445    4.2435709    4.2044557  
  19 H       2.9566838 *  2.1630620 *  3.3613338    4.5519949    4.3222600  
  20 H       3.5613144    2.1652464 *  2.7520423 *  4.2169870    4.5947530  

                6 H          7 H          8 H          9 H         10 H     

   1 C       1.0872037 *  1.0901127 *  3.0168095    3.3615976    2.1995172 *
   2 C       2.1953482 *  2.1433113 *  2.9881440 *  3.2405973    3.3220773  
   3 C       3.2085591    3.0055488    2.1396657 *  2.1929298 *  3.3119929  
   4 C       3.3563059    3.0295113    1.0901033 *  1.0869049 *  2.1995349 *
   5 C       2.2107116 *  2.1939102 *  2.1948861 *  2.2117428 *  1.0864603 *
   6 H       0.0000000    1.7594330 *  4.0332346    4.0972341    2.8089944 *
   7 H       1.7594330 *  0.0000000    3.2252987    4.0449996    2.3880716 *
   8 H       4.0332346    3.2252987    0.0000000    1.7620760 *  2.3933531 *
   9 H       4.0972341    4.0449996    1.7620760 *  0.0000000    2.8023209 *
  10 H       2.8089944 *  2.3880716 *  2.3933531 *  2.8023209 *  0.0000000  
  11 H       2.3773901 *  3.0216211    3.0260843    2.3799245 *  1.7583234 *
  12 B       3.1121331    3.8786460    3.8193100    3.0513247    4.2188529  
  13 H       3.9008601    4.4848580    3.5253336    2.3752779 *  4.2808363  
  14 H       2.5095312 *  3.7385073    4.2387492    3.3933838    3.9677808  
  15 H       3.8027430    4.5141756    4.6534716    4.0463508    5.2455559  
  16 H       4.2234969    3.9139234    2.6151657 *  2.7026127 *  4.2825154  
  17 C       2.9899000 *  2.8691868 *  4.2786431    4.6904641    4.6784579  
  18 H       3.3098966    2.6706753 *  4.4350570    5.2087920    4.7849530  
  19 H       2.8886404 *  3.2673007    5.1196401    5.3243590    5.1353009  
  20 H       3.9692147    3.8328585    4.6023907    4.9329547    5.4361781  

               11 H         12 B         13 H         14 H         15 H     

   1 C       2.1757391 *  2.9074769 *  3.5267321    2.6747484 *  3.6651421  
   2 C       3.0061819    2.0000000 *  2.7147017 *  2.3682708 *  2.4629772 *
   3 C       2.9774209 *  1.9250870 *  2.0000000 *  2.6685381 *  2.5582355 *
   4 C       2.1748358 *  2.8567763 *  2.5712257 *  3.1986672    3.8076400  
   5 C       1.0861057 *  3.1344125    3.2506491    2.9199646 *  4.1750754  
   6 H       2.3773901 *  3.1121331    3.9008601    2.5095312 *  3.8027430  
   7 H       3.0216211    3.8786460    4.4848580    3.7385073    4.5141756  
   8 H       3.0260843    3.8193100    3.5253336    4.2387492    4.6534716  
   9 H       2.3799245 *  3.0513247    2.3752779 *  3.3933838    4.0463508  
  10 H       1.7583234 *  4.2188529    4.2808363    3.9677808    5.2455559  
  11 H       0.0000000    3.0558926    3.1050500    2.5490081 *  4.1764489  
  12 B       3.0558926    0.0000000    1.1528034 *  1.1535986 *  1.1530003 *
  13 H       3.1050500    1.1528034 *  0.0000000    1.9249300 *  1.9337437 *
  14 H       2.5490081 *  1.1535986 *  1.9249300 *  0.0000000    1.9802664 *
  15 H       4.1764489    1.1530003 *  1.9337437 *  1.9802664 *  0.0000000  
  16 H       3.9927544    2.4013729 *  2.2615352 *  3.4041007    2.6569077 *
  17 C       4.4418861    2.8537414 *  3.7618157    3.2750281    2.6757627 *
  18 H       4.9251114    3.8405626    4.6736802    4.1955418    3.7522061  
  19 H       4.6780569    3.0395021    4.1201925    3.1739384    2.7413774 *
  20 H       5.1185099    2.9832406 *  3.7515407    3.6950304    2.4752849 *

               16 H         17 C         18 H         19 H         20 H     

   1 C       3.4092430    2.6516312 *  2.8817339 *  2.9566838 *  3.5613144  
   2 C       2.1634271 *  1.5242449 *  2.1401866 *  2.1630620 *  2.1652464 *
   3 C       1.0835554 *  2.5857437 *  3.1712445    3.3613338    2.7520423 *
   4 C       2.2890870 *  3.8526515    4.2435709    4.5519949    4.2169870  
   5 C       3.4588301    3.8931110    4.2044557    4.3222600    4.5947530  
   6 H       4.2234969    2.9899000 *  3.3098966    2.8886404 *  3.9692147  
   7 H       3.9139234    2.8691868 *  2.6706753 *  3.2673007    3.8328585  
   8 H       2.6151657 *  4.2786431    4.4350570    5.1196401    4.6023907  
   9 H       2.7026127 *  4.6904641    5.2087920    5.3243590    4.9329547  
  10 H       4.2825154    4.6784579    4.7849530    5.1353009    5.4361781  
  11 H       3.9927544    4.4418861    4.9251114    4.6780569    5.1185099  
  12 B       2.4013729 *  2.8537414 *  3.8405626    3.0395021    2.9832406 *
  13 H       2.2615352 *  3.7618157    4.6736802    4.1201925    3.7515407  
  14 H       3.4041007    3.2750281    4.1955418    3.1739384    3.6950304  
  15 H       2.6569077 *  2.6757627 *  3.7522061    2.7413774 *  2.4752849 *
  16 H       0.0000000    2.9032011 *  3.4783287    3.7769512    2.6525277 *
  17 C       2.9032011 *  0.0000000    1.0885908 *  1.0863992 *  1.0848365 *
  18 H       3.4783287    1.0885908 *  0.0000000    1.7623588 *  1.7685749 *
  19 H       3.7769512    1.0863992 *  1.7623588 *  0.0000000    1.7667665 *
  20 H       2.6525277 *  1.0848365 *  1.7685749 *  1.7667665 *  0.0000000  

  * ... LESS THAN  3.000


     ATOMIC BASIS SET
     ----------------
 THE CONTRACTED PRIMITIVE FUNCTIONS HAVE BEEN UNNORMALIZED
 THE CONTRACTED BASIS FUNCTIONS ARE NOW NORMALIZED TO UNITY

  SHELL TYPE  PRIMITIVE        EXPONENT          CONTRACTION COEFFICIENT(S)

 C         

      1   S       1            71.6168373    0.154328967295
      1   S       2            13.0450963    0.535328142282
      1   S       3             3.5305122    0.444634542185

      2   L       4             2.9412494   -0.099967229187    0.155916274999
      2   L       5             0.6834831    0.399512826089    0.607683718598
      2   L       6             0.2222899    0.700115468880    0.391957393099

 C         

      3   S       7            71.6168373    0.154328967295
      3   S       8            13.0450963    0.535328142282
      3   S       9             3.5305122    0.444634542185

      4   L      10             2.9412494   -0.099967229187    0.155916274999
      4   L      11             0.6834831    0.399512826089    0.607683718598
      4   L      12             0.2222899    0.700115468880    0.391957393099

 C         

      5   S      13            71.6168373    0.154328967295
      5   S      14            13.0450963    0.535328142282
      5   S      15             3.5305122    0.444634542185

      6   L      16             2.9412494   -0.099967229187    0.155916274999
      6   L      17             0.6834831    0.399512826089    0.607683718598
      6   L      18             0.2222899    0.700115468880    0.391957393099

 C         

      7   S      19            71.6168373    0.154328967295
      7   S      20            13.0450963    0.535328142282
      7   S      21             3.5305122    0.444634542185

      8   L      22             2.9412494   -0.099967229187    0.155916274999
      8   L      23             0.6834831    0.399512826089    0.607683718598
      8   L      24             0.2222899    0.700115468880    0.391957393099

 C         

      9   S      25            71.6168373    0.154328967295
      9   S      26            13.0450963    0.535328142282
      9   S      27             3.5305122    0.444634542185

     10   L      28             2.9412494   -0.099967229187    0.155916274999
     10   L      29             0.6834831    0.399512826089    0.607683718598
     10   L      30             0.2222899    0.700115468880    0.391957393099

 H         

     11   S      31             3.4252509    0.154328967295
     11   S      32             0.6239137    0.535328142282
     11   S      33             0.1688554    0.444634542185

 H         

     12   S      34             3.4252509    0.154328967295
     12   S      35             0.6239137    0.535328142282
     12   S      36             0.1688554    0.444634542185

 H         

     13   S      37             3.4252509    0.154328967295
     13   S      38             0.6239137    0.535328142282
     13   S      39             0.1688554    0.444634542185

 H         

     14   S      40             3.4252509    0.154328967295
     14   S      41             0.6239137    0.535328142282
     14   S      42             0.1688554    0.444634542185

 H         

     15   S      43             3.4252509    0.154328967295
     15   S      44             0.6239137    0.535328142282
     15   S      45             0.1688554    0.444634542185

 H         

     16   S      46             3.4252509    0.154328967295
     16   S      47             0.6239137    0.535328142282
     16   S      48             0.1688554    0.444634542185

 B         

     17   S      49            48.7911132    0.154328967295
     17   S      50             8.8873622    0.535328142282
     17   S      51             2.4052670    0.444634542185

     18   L      52             2.2369561   -0.099967229187    0.155916274999
     18   L      53             0.5198205    0.399512826089    0.607683718598
     18   L      54             0.1690618    0.700115468880    0.391957393099

 H         

     19   S      55             3.4252509    0.154328967295
     19   S      56             0.6239137    0.535328142282
     19   S      57             0.1688554    0.444634542185

 H         

     20   S      58             3.4252509    0.154328967295
     20   S      59             0.6239137    0.535328142282
     20   S      60             0.1688554    0.444634542185

 H         

     21   S      61             3.4252509    0.154328967295
     21   S      62             0.6239137    0.535328142282
     21   S      63             0.1688554    0.444634542185

 H         

     22   S      64             3.4252509    0.154328967295
     22   S      65             0.6239137    0.535328142282
     22   S      66             0.1688554    0.444634542185

 C         

     23   S      67            71.6168373    0.154328967295
     23   S      68            13.0450963    0.535328142282
     23   S      69             3.5305122    0.444634542185

     24   L      70             2.9412494   -0.099967229187    0.155916274999
     24   L      71             0.6834831    0.399512826089    0.607683718598
     24   L      72             0.2222899    0.700115468880    0.391957393099

 H         

     25   S      73             3.4252509    0.154328967295
     25   S      74             0.6239137    0.535328142282
     25   S      75             0.1688554    0.444634542185

 H         

     26   S      76             3.4252509    0.154328967295
     26   S      77             0.6239137    0.535328142282
     26   S      78             0.1688554    0.444634542185

 H         

     27   S      79             3.4252509    0.154328967295
     27   S      80             0.6239137    0.535328142282
     27   S      81             0.1688554    0.444634542185

 TOTAL NUMBER OF BASIS SET SHELLS             =   27
 NUMBER OF CARTESIAN GAUSSIAN BASIS FUNCTIONS =   48
 NUMBER OF ELECTRONS                          =   54
 CHARGE OF MOLECULE                           =    0
 SPIN MULTIPLICITY                            =    1
 NUMBER OF OCCUPIED ORBITALS (ALPHA)          =   27
 NUMBER OF OCCUPIED ORBITALS (BETA )          =   27
 TOTAL NUMBER OF ATOMS                        =   20
 THE NUCLEAR REPULSION ENERGY IS      309.6445630715

     $CONTRL OPTIONS
     ---------------
 SCFTYP=RHF          RUNTYP=SADPOINT     EXETYP=RUN     
 MPLEVL=       0     CITYP =NONE         CCTYP =NONE         VBTYP =NONE    
 DFTTYP=NONE         TDDFT =NONE    
 MULT  =       1     ICHARG=       0     NZVAR =       0     COORD =UNIQUE  
 PP    =NONE         RELWFN=NONE         LOCAL =NONE         NUMGRD=       F
 ISPHER=      -1     NOSYM =       0     MAXIT =      30     UNITS =ANGS    
 PLTORB=       F     MOLPLT=       F     AIMPAC=       F     FRIEND=        
 NPRINT=       7     IREST =       0     GEOM  =INPUT   
 NORMF =       0     NORMP =       0     ITOL  =      20     ICUT  =       9
 INTTYP=BEST         GRDTYP=BEST         QMTTOL= 1.0E-06

     $SYSTEM OPTIONS
     ---------------
  REPLICATED MEMORY=     1000000 WORDS (ON EVERY NODE).
 DISTRIBUTED MEMDDI=           0 MILLION WORDS IN AGGREGATE,
 MEMDDI DISTRIBUTED OVER   1 PROCESSORS IS           0 WORDS/PROCESSOR.
 TOTAL MEMORY REQUESTED ON EACH PROCESSOR=     1000000 WORDS.
 TIMLIM=      525600.00 MINUTES, OR     365.0 DAYS.
 PARALL= F  BALTYP=  DLB     KDIAG=    0  COREFL= F
 MXSEQ2=     300 MXSEQ3=     150  mem10=         0

          ----------------
          PROPERTIES INPUT
          ----------------

     MOMENTS            FIELD           POTENTIAL          DENSITY
 IEMOM =       1   IEFLD =       0   IEPOT =       0   IEDEN =       0
 WHERE =COMASS     WHERE =NUCLEI     WHERE =NUCLEI     WHERE =NUCLEI  
 OUTPUT=BOTH       OUTPUT=BOTH       OUTPUT=BOTH       OUTPUT=BOTH    
 IEMINT=       0   IEFINT=       0                     IEDINT=       0
                                                       MORB  =       0
          EXTRAPOLATION IN EFFECT
          SOSCF IN EFFECT
 ORBITAL PRINTING OPTION: NPREO=     1    48     2     1

     -------------------------------
     INTEGRAL TRANSFORMATION OPTIONS
     -------------------------------
     NWORD  =            0
     CUTOFF = 1.0E-09     MPTRAN =       0
     DIRTRF =       F     AOINTS =DUP     

          ----------------------
          INTEGRAL INPUT OPTIONS
          ----------------------
 NOPK  =       1 NORDER=       0 SCHWRZ=       T

     ------------------------------------------
     THE POINT GROUP IS C1 , NAXIS= 0, ORDER= 1
     ------------------------------------------

     DIMENSIONS OF THE SYMMETRY SUBSPACES ARE
 A   =   48

 ..... DONE SETTING UP THE RUN .....
 STEP CPU TIME =     0.05 TOTAL CPU TIME =          0.0 (      0.0 MIN)
 TOTAL WALL CLOCK TIME=          0.1 SECONDS, CPU UTILIZATION IS    71.43%


          -----------------------------
          STATIONARY POINT LOCATION RUN
          -----------------------------

 OBTAINING INITIAL HESSIAN, HESS=CALC    

     ---------------------------------
     HESSIAN MATRIX CONTROL PARAMETERS
     ---------------------------------
     METHOD=ANALYTIC   NVIB  =       2   VIBSIZ= 0.01000
     RDHESS=       F   PURIFY=       F   PRTIFC=       F
     VIBANL=       F   DECOMP=       F   PROJCT=       F
     SCLFAC= 1.00000   PRTSCN=       F   NPRT  =       0
     PULCOR=       F   NPUN  =       0   REDOVB=       T
     HSSTYP=GENERAL 
 Old integral subroutine is used

     ------------------------------
     CPHF RESPONSE SOLUTION OPTIONS
     ------------------------------
     POLAR  =       F     NWORD  =       0
     CPHF   =AO      

          ********************
          1 ELECTRON INTEGRALS
          ********************
 ...... END OF ONE-ELECTRON INTEGRALS ......
 STEP CPU TIME =     0.01 TOTAL CPU TIME =          0.1 (      0.0 MIN)
 TOTAL WALL CLOCK TIME=          0.1 SECONDS, CPU UTILIZATION IS    66.67%

          -------------
          GUESS OPTIONS
          -------------
          GUESS =HUCKEL            NORB  =       0          NORDER=       0
          MIX   =       F          PRTMO =       F          PUNMO =       F
          TOLZ  = 1.0E-08          TOLE  = 1.0E-05
          SYMDEN=       F          PURIFY=       F

 INITIAL GUESS ORBITALS GENERATED BY HUCKEL   ROUTINE.
 HUCKEL GUESS REQUIRES     39252 WORDS.

 SYMMETRIES FOR INITIAL GUESS ORBITALS FOLLOW.   BOTH SET(S).
    27 ORBITALS ARE OCCUPIED (    7 CORE ORBITALS).
     8=A        9=A       10=A       11=A       12=A       13=A       14=A   
    15=A       16=A       17=A       18=A       19=A       20=A       21=A   
    22=A       23=A       24=A       25=A       26=A       27=A       28=A   
    29=A       30=A       31=A       32=A       33=A       34=A       35=A   
    36=A       37=A   
 ...... END OF INITIAL ORBITAL SELECTION ......
 STEP CPU TIME =     0.03 TOTAL CPU TIME =          0.1 (      0.0 MIN)
 TOTAL WALL CLOCK TIME=          0.1 SECONDS, CPU UTILIZATION IS    81.82%

                    ----------------------
                    AO INTEGRAL TECHNOLOGY
                    ----------------------
     S,P,L SHELL ROTATED AXIS INTEGRALS, REPROGRAMMED BY
        KAZUYA ISHIMURA (IMS) AND JOSE SIERRA (SYNSTAR).
     S,P,D,L SHELL ROTATED AXIS INTEGRALS PROGRAMMED BY
        KAZUYA ISHIMURA (INSTITUTE FOR MOLECULAR SCIENCE).
     S,P,D,F,G SHELL TO TOTAL QUARTET ANGULAR MOMENTUM SUM 5,
        ERIC PROGRAM BY GRAHAM FLETCHER (ELORET AND NASA ADVANCED
        SUPERCOMPUTING DIVISION, AMES RESEARCH CENTER).
     S,P,D,F,G,L SHELL GENERAL RYS QUADRATURE PROGRAMMED BY
        MICHEL DUPUIS (PACIFIC NORTHWEST NATIONAL LABORATORY).

          --------------------
          2 ELECTRON INTEGRALS
          --------------------

 THE -PK- OPTION IS OFF, THE INTEGRALS ARE NOT IN SUPERMATRIX FORM.
 STORING   15000 INTEGRALS/RECORD ON DISK, USING 12 BYTES/INTEGRAL.
 TWO ELECTRON INTEGRAL EVALUATION REQUIRES   89734 WORDS OF MEMORY.
 SCHWARZ INEQUALITY OVERHEAD:      1165 INTEGRALS, T=        0.01
 II,JST,KST,LST =  1  1  1  1 NREC =         1 INTLOC =    1
 II,JST,KST,LST =  2  1  1  1 NREC =         1 INTLOC =    2
 II,JST,KST,LST =  3  1  1  1 NREC =         1 INTLOC =   34
 II,JST,KST,LST =  4  1  1  1 NREC =         1 INTLOC =  142
 II,JST,KST,LST =  5  1  1  1 NREC =         1 INTLOC = 1361
 II,JST,KST,LST =  6  1  1  1 NREC =         1 INTLOC = 1956
 II,JST,KST,LST =  7  1  1  1 NREC =         1 INTLOC = 6844
 II,JST,KST,LST =  8  1  1  1 NREC =         1 INTLOC = 8542
 II,JST,KST,LST =  9  1  1  1 NREC =         2 INTLOC = 5997
 II,JST,KST,LST = 10  1  1  1 NREC =         2 INTLOC = 9835
 II,JST,KST,LST = 11  1  1  1 NREC =         4 INTLOC = 5328
 II,JST,KST,LST = 12  1  1  1 NREC =         4 INTLOC =13933
 II,JST,KST,LST = 13  1  1  1 NREC =         5 INTLOC = 8589
 II,JST,KST,LST = 14  1  1  1 NREC =         6 INTLOC = 4369
 II,JST,KST,LST = 15  1  1  1 NREC =         7 INTLOC = 1360
 II,JST,KST,LST = 16  1  1  1 NREC =         7 INTLOC =14649
 II,JST,KST,LST = 17  1  1  1 NREC =         8 INTLOC =14334
 II,JST,KST,LST = 18  1  1  1 NREC =         9 INTLOC =12778
 II,JST,KST,LST = 19  1  1  1 NREC =        15 INTLOC = 3307
 II,JST,KST,LST = 20  1  1  1 NREC =        16 INTLOC =13146
 II,JST,KST,LST = 21  1  1  1 NREC =        18 INTLOC =10092
 II,JST,KST,LST = 22  1  1  1 NREC =        20 INTLOC = 9133
 II,JST,KST,LST = 23  1  1  1 NREC =        22 INTLOC =10621
 II,JST,KST,LST = 24  1  1  1 NREC =        24 INTLOC = 7257
 II,JST,KST,LST = 25  1  1  1 NREC =        35 INTLOC = 1370
 II,JST,KST,LST = 26  1  1  1 NREC =        38 INTLOC = 3291
 II,JST,KST,LST = 27  1  1  1 NREC =        41 INTLOC = 8117
 SCHWARZ INEQUALITY TEST SKIPPED        7544 INTEGRAL BLOCKS.
 TOTAL NUMBER OF NONZERO TWO-ELECTRON INTEGRALS =              661293
         45 INTEGRAL RECORDS WERE STORED ON DISK FILE  8.
  ...... END OF TWO-ELECTRON INTEGRALS .....
 STEP CPU TIME =     0.20 TOTAL CPU TIME =          0.3 (      0.0 MIN)
 TOTAL WALL CLOCK TIME=          0.3 SECONDS, CPU UTILIZATION IS    93.55%

          --------------------------
                 RHF SCF CALCULATION
          --------------------------

     NUCLEAR ENERGY =       309.6445630715
     MAXIT =   30     NPUNCH=    2
     EXTRAP=T  DAMP=F  SHIFT=F  RSTRCT=F  DIIS=F  DEM=F  SOSCF=T
     DENSITY MATRIX CONV=  1.00E-05
     SOSCF WILL OPTIMIZE     567 ORBITAL ROTATIONS, SOGTOL=   0.250
     MEMORY REQUIRED FOR RHF ITERS=     49068 WORDS.

 ITER EX DEM     TOTAL ENERGY        E CHANGE  DENSITY CHANGE     ORB. GRAD
   1  0  0     -255.9823275384  -255.9823275384   0.300112592   0.000000000
          ---------------START SECOND ORDER SCF---------------
   2  1  0     -256.3258204849    -0.3434929465   0.052213992   0.029681824
   3  2  0     -256.3388578379    -0.0130373530   0.030928770   0.005988080
   4  3  0     -256.3399275045    -0.0010696666   0.003310595   0.000969383
   5  4  0     -256.3399513945    -0.0000238899   0.001232037   0.000441420
   6  5  0     -256.3399545738    -0.0000031793   0.000275034   0.000070247
   7  6  0     -256.3399547537    -0.0000001798   0.000046627   0.000016792
   8  7  0     -256.3399547648    -0.0000000111   0.000012776   0.000003126
   9  8  0     -256.3399547653    -0.0000000005   0.000004539   0.000001033
  10  9  0     -256.3399547653    -0.0000000001   0.000001314   0.000000286

          -----------------
          DENSITY CONVERGED
          -----------------
     TIME TO FORM FOCK OPERATORS=       0.1 SECONDS (       0.0 SEC/ITER)
     TIME TO SOLVE SCF EQUATIONS=       0.1 SECONDS (       0.0 SEC/ITER)

 FINAL RHF ENERGY IS     -256.3399547653 AFTER  10 ITERATIONS

          ------------
          EIGENVECTORS
          ------------

                      1          2          3          4          5
                  -11.0931   -11.0913   -11.0694   -11.0684   -11.0664
                     A          A          A          A          A   
    1  C  1  S   -0.005003  -0.000495  -0.012221  -0.008145   0.991695
    2  C  1  S   -0.005554   0.001145  -0.000315  -0.000215   0.037319
    3  C  1  X    0.001463  -0.000429   0.000045  -0.000000  -0.000145
    4  C  1  Y   -0.003234   0.000549  -0.000042   0.000004  -0.000005
    5  C  1  Z   -0.001987   0.000347  -0.000182   0.000019   0.000359
    6  C  2  S    0.973514  -0.191254   0.001338   0.005956   0.005843
    7  C  2  S    0.033809  -0.013870   0.000259  -0.005541  -0.005605
    8  C  2  X    0.001116  -0.003660   0.000029   0.004030  -0.001547
    9  C  2  Y    0.000844  -0.002839  -0.000036   0.000213   0.003419
   10  C  2  Z   -0.000176  -0.001670  -0.000055  -0.001793   0.002045
   11  C  3  S    0.191687   0.973382   0.006534   0.000241   0.001590
   12  C  3  S    0.000139   0.037211  -0.005593   0.000093   0.000123
   13  C  3  X    0.002804  -0.002232  -0.003929  -0.000121  -0.000063
   14  C  3  Y    0.002957  -0.001821   0.001432   0.000096   0.000040
   15  C  3  Z    0.000298  -0.001130   0.001107   0.000142   0.000008
   16  C  4  S   -0.002419  -0.005233   0.991787   0.001585   0.012059
   17  C  4  S   -0.001021  -0.005597   0.037322   0.000054   0.000628
   18  C  4  X    0.000788   0.003639  -0.000246   0.000018   0.000101
   19  C  4  Y   -0.000132  -0.001348   0.000021   0.000008   0.000004
   20  C  4  Z   -0.000182  -0.001077   0.000380   0.000013  -0.000153
   21  C  5  S   -0.001093  -0.000894  -0.012169  -0.000447  -0.016555
   22  C  5  S    0.000148   0.000067  -0.005936  -0.000040  -0.006247
   23  C  5  X    0.000039   0.000168  -0.000993   0.000025   0.003870
   24  C  5  Y   -0.000156  -0.000037  -0.003080  -0.000045   0.001142
   25  C  5  Z   -0.000005   0.000036  -0.002598  -0.000016  -0.000837
   26  H  6  S   -0.000011  -0.000037  -0.000007   0.000058  -0.006944
   27  H  7  S   -0.000071   0.000018   0.000102   0.000056  -0.007027
   28  H  8  S   -0.000008  -0.000055  -0.007017  -0.000012  -0.000072
   29  H  9  S   -0.000039   0.000064  -0.006930  -0.000011  -0.000179
   30  H 10  S   -0.000087  -0.000068   0.000203  -0.000008   0.000237
   31  H 11  S    0.000037   0.000044   0.000159   0.000005   0.000200
   32  B 12  S    0.000483   0.000318   0.000022   0.000019   0.000012
   33  B 12  S   -0.003470  -0.002458  -0.000014   0.000015   0.000048
   34  B 12  X    0.000344  -0.001893  -0.000109   0.000111  -0.000081
   35  B 12  Y    0.002609   0.000335   0.000096   0.000065   0.000053
   36  B 12  Z   -0.001668  -0.002219   0.000041  -0.000040  -0.000033
   37  H 13  S   -0.000070  -0.000160  -0.000060  -0.000050   0.000022
   38  H 14  S    0.000388  -0.000034   0.000046   0.000042  -0.000171
   39  H 15  S    0.000438   0.000151  -0.000079  -0.000108  -0.000053
   40  H 16  S   -0.001163  -0.006504   0.000055  -0.000071  -0.000070
   41  C 17  S   -0.004992   0.000739  -0.001694   0.991893   0.008112
   42  C 17  S   -0.005415   0.001284  -0.000099   0.037880   0.000433
   43  C 17  X   -0.003672   0.000786  -0.000028  -0.000007   0.000026
   44  C 17  Y   -0.000308   0.000129  -0.000028  -0.000146  -0.000023
   45  C 17  Z    0.001423  -0.000293   0.000013   0.000077  -0.000011
   46  H 18  S   -0.000073   0.000024   0.000010  -0.007004  -0.000057
   47  H 19  S   -0.000051  -0.000019   0.000012  -0.006962  -0.000074
   48  H 20  S    0.000054  -0.000122  -0.000010  -0.006963  -0.000128

                      6          7          8          9         10
                  -11.0570    -7.3038    -1.1287    -0.9941    -0.9507
                     A          A          A          A          A   
    1  C  1  S    0.017404   0.000033  -0.092718   0.028531  -0.147518
    2  C  1  S   -0.004964   0.000057   0.241251  -0.077090   0.422848
    3  C  1  X   -0.003940  -0.000048   0.011677  -0.078184   0.013878
    4  C  1  Y   -0.001047  -0.000139   0.050447   0.013888  -0.013223
    5  C  1  Z    0.000908   0.000089   0.024689   0.029862  -0.007581
    6  C  2  S    0.001082   0.000507  -0.137001  -0.102854  -0.006014
    7  C  2  S    0.000084  -0.003080   0.352006   0.286257   0.021613
    8  C  2  X   -0.000139   0.000556   0.072768  -0.069734  -0.073191
    9  C  2  Y   -0.000010  -0.001944   0.026313   0.035537  -0.142393
   10  C  2  Z    0.000076   0.001990   0.000794   0.048985  -0.052903
   11  C  3  S    0.001274   0.000491  -0.129267  -0.023744   0.132241
   12  C  3  S    0.000093  -0.003428   0.333180   0.067510  -0.376419
   13  C  3  X   -0.000002   0.001267  -0.032974  -0.115570  -0.016797
   14  C  3  Y    0.000133  -0.001529  -0.073476  -0.008932   0.001206
   15  C  3  Z    0.000152   0.002362  -0.042926   0.011129   0.006068
   16  C  4  S    0.013373   0.000049  -0.089681   0.105122   0.081417
   17  C  4  S   -0.005101  -0.000029   0.232916  -0.293329  -0.233834
   18  C  4  X    0.000775   0.000142  -0.055139   0.000156   0.038209
   19  C  4  Y    0.003115  -0.000033  -0.011519   0.040834  -0.063483
   20  C  4  Z    0.002668   0.000199  -0.003797   0.029983  -0.049861
   21  C  5  S    0.991763   0.000033  -0.079538   0.119002  -0.080134
   22  C  5  S    0.037013   0.000002   0.204925  -0.330928   0.228350
   23  C  5  X    0.000090   0.000187  -0.031214  -0.003999  -0.065159
   24  C  5  Y    0.000024  -0.000236   0.021593  -0.025611  -0.061171
   25  C  5  Z   -0.000217   0.000027   0.030712  -0.026065  -0.020823
   26  H  6  S    0.000008  -0.000043   0.041414  -0.015302   0.119244
   27  H  7  S   -0.000036  -0.000116   0.045784  -0.016183   0.121904
   28  H  8  S   -0.000009  -0.000131   0.043743  -0.073910  -0.065461
   29  H  9  S    0.000036   0.000001   0.039433  -0.071213  -0.065707
   30  H 10  S   -0.006991  -0.000100   0.035240  -0.083084   0.066236
   31  H 11  S   -0.007013  -0.000209   0.037487  -0.079565   0.060378
   32  B 12  S    0.000020   0.989877  -0.025846  -0.015853   0.022280
   33  B 12  S   -0.000093   0.042465   0.037380   0.026519  -0.037665
   34  B 12  X   -0.000125   0.001042   0.007213  -0.005501  -0.016152
   35  B 12  Y    0.000110  -0.000623  -0.013898  -0.010085   0.001200
   36  B 12  Z    0.000032   0.001257   0.014647   0.012406  -0.019771
   37  H 13  S    0.000061  -0.007220   0.016115   0.003637  -0.029289
   38  H 14  S    0.000056  -0.007087   0.013378   0.007087  -0.002812
   39  H 15  S   -0.000050  -0.007118   0.010422   0.014553  -0.010302
   40  H 16  S   -0.000128  -0.000265   0.057751   0.023683  -0.110509
   41  C 17  S    0.000575   0.000041  -0.050083  -0.137368  -0.050426
   42  C 17  S   -0.000062   0.000125   0.134233   0.382731   0.142721
   43  C 17  X   -0.000061  -0.000027   0.039605   0.041589  -0.000262
   44  C 17  Y    0.000029  -0.000286   0.001570   0.003010  -0.018984
   45  C 17  Z    0.000039   0.000135  -0.015246  -0.013313  -0.008320
   46  H 18  S   -0.000007  -0.000156   0.025215   0.095319   0.045997
   47  H 19  S   -0.000008  -0.000199   0.023289   0.091030   0.044208
   48  H 20  S   -0.000012  -0.000105   0.024968   0.095459   0.028265

                     11         12         13         14         15
                   -0.8932    -0.7806    -0.7052    -0.6683    -0.6305
                     A          A          A          A          A   
    1  C  1  S    0.078744   0.084272   0.055606  -0.008475   0.008308
    2  C  1  S   -0.230609  -0.262269  -0.178977   0.027847  -0.027105
    3  C  1  X    0.041739   0.136741  -0.027367  -0.102781  -0.124731
    4  C  1  Y   -0.016614   0.055499   0.203830   0.049833  -0.118153
    5  C  1  Z   -0.019985  -0.054793   0.106928  -0.152428   0.029701
    6  C  2  S    0.056704  -0.013332  -0.110892   0.008939  -0.067483
    7  C  2  S   -0.165393   0.035109   0.362584  -0.024386   0.240194
    8  C  2  X   -0.165897   0.024815   0.040541  -0.094017  -0.233006
    9  C  2  Y   -0.016868   0.171472  -0.041678   0.035802   0.022311
   10  C  2  Z    0.055178   0.051703  -0.034398  -0.186570   0.090366
   11  C  3  S    0.055462  -0.029911   0.087032   0.037774   0.033394
   12  C  3  S   -0.156661   0.087887  -0.292776  -0.120821  -0.113326
   13  C  3  X    0.108401  -0.175711  -0.075961   0.015793  -0.171107
   14  C  3  Y    0.031783   0.016882  -0.273536   0.114758   0.128953
   15  C  3  Z    0.017193  -0.005649  -0.173856  -0.171067   0.143874
   16  C  4  S   -0.104501   0.099508  -0.030489  -0.017610  -0.014040
   17  C  4  S    0.308512  -0.309474   0.097200   0.057535   0.045518
   18  C  4  X    0.058508  -0.054182   0.040179   0.062337   0.299183
   19  C  4  Y   -0.025659  -0.087859  -0.100135   0.135553  -0.005970
   20  C  4  Z   -0.020935  -0.111763  -0.062936  -0.130234   0.052718
   21  C  5  S   -0.063091  -0.130723   0.002869   0.015811  -0.002999
   22  C  5  S    0.185327   0.406644  -0.008627  -0.051410   0.006086
   23  C  5  X    0.083421   0.065111   0.044379  -0.028608   0.209704
   24  C  5  Y    0.044937  -0.049017   0.116051   0.111055  -0.122180
   25  C  5  Z    0.014767  -0.107731   0.063681  -0.113031  -0.029317
   26  H  6  S   -0.068237  -0.111301  -0.146718   0.131227   0.037230
   27  H  7  S   -0.066837  -0.138777  -0.133215  -0.085885   0.078546
   28  H  8  S    0.102370  -0.157666   0.035142  -0.068295   0.164724
   29  H  9  S    0.103741  -0.131681   0.020819   0.155504   0.126294
   30  H 10  S    0.066207   0.178991  -0.039927  -0.103324   0.174803
   31  H 11  S    0.057107   0.188062  -0.016879   0.087489   0.005018
   32  B 12  S    0.020471  -0.034992   0.016887  -0.149098  -0.017696
   33  B 12  S   -0.036557   0.071317  -0.035070   0.339429   0.041546
   34  B 12  X   -0.008252   0.003699  -0.025672   0.023487  -0.046752
   35  B 12  Y    0.013256  -0.008923  -0.043132  -0.017787   0.005969
   36  B 12  Z   -0.012324   0.021606  -0.020937  -0.002343   0.021089
   37  H 13  S   -0.013817   0.027351  -0.067524   0.184052  -0.006524
   38  H 14  S   -0.014420   0.023038   0.008713   0.182262   0.006266
   39  H 15  S   -0.006503   0.032381  -0.022227   0.147811   0.054760
   40  H 16  S   -0.038734   0.047521  -0.319508  -0.074108   0.095763
   41  C 17  S   -0.151650   0.002697   0.024541   0.002128   0.030984
   42  C 17  S    0.440750  -0.007949  -0.075427  -0.006942  -0.102984
   43  C 17  X   -0.048232   0.011366   0.111898  -0.046716   0.264296
   44  C 17  Y   -0.006872   0.050222  -0.015402   0.031715   0.050589
   45  C 17  Z    0.023931   0.010847  -0.064632  -0.100271  -0.114464
   46  H 18  S    0.141725  -0.025923  -0.051939  -0.066126  -0.133204
   47  H 19  S    0.137317  -0.017395  -0.048244   0.071035  -0.119240
   48  H 20  S    0.137637   0.026435  -0.081852  -0.010475  -0.092425

                     16         17         18         19         20
                   -0.5983    -0.5670    -0.5603    -0.5353    -0.5054
                     A          A          A          A          A   
    1  C  1  S   -0.005602  -0.021286  -0.009940   0.003536   0.011688
    2  C  1  S    0.019559   0.073969   0.032412  -0.012071  -0.051523
    3  C  1  X    0.134985   0.002927   0.040714  -0.056993  -0.126605
    4  C  1  Y   -0.106806  -0.021190  -0.158383   0.121560  -0.185651
    5  C  1  Z    0.143861  -0.251447   0.136520  -0.243386  -0.136599
    6  C  2  S    0.031072   0.002337   0.007223   0.004225   0.001424
    7  C  2  S   -0.114310  -0.016100  -0.033487  -0.013539  -0.028659
    8  C  2  X    0.062943   0.051745   0.073218   0.022152   0.249320
    9  C  2  Y    0.091990   0.197088   0.056112  -0.023203   0.236829
   10  C  2  Z   -0.034219   0.032400   0.128755   0.012413   0.007412
   11  C  3  S    0.022650   0.008260   0.015901   0.010709  -0.033472
   12  C  3  S   -0.082714  -0.040606  -0.061124  -0.039817   0.109102
   13  C  3  X   -0.041082  -0.107346  -0.083547   0.000060  -0.184865
   14  C  3  Y   -0.046144  -0.112374  -0.048311  -0.034686  -0.204410
   15  C  3  Z   -0.100941  -0.014118  -0.081379   0.049086  -0.184077
   16  C  4  S   -0.002125  -0.016085  -0.007842   0.002150   0.004140
   17  C  4  S    0.008231   0.054719   0.027162  -0.009839  -0.020238
   18  C  4  X   -0.002584   0.080176   0.065795   0.029516   0.120406
   19  C  4  Y   -0.180687  -0.030649   0.141589  -0.154701   0.127961
   20  C  4  Z    0.132841   0.076352  -0.220812   0.262819   0.018271
   21  C  5  S    0.006936   0.013992   0.010188   0.001500   0.024299
   22  C  5  S   -0.021881  -0.047777  -0.035507  -0.006018  -0.094552
   23  C  5  X    0.019933  -0.096752   0.004182  -0.041109   0.198860
   24  C  5  Y   -0.162438   0.023584   0.062849  -0.024548  -0.195705
   25  C  5  Z    0.270185  -0.032783  -0.017064  -0.059079  -0.075076
   26  H  6  S   -0.118693   0.207287  -0.073919   0.175421   0.182804
   27  H  7  S    0.148228  -0.095539   0.201380  -0.219628   0.043462
   28  H  8  S    0.143555   0.117567  -0.161315   0.253430   0.016098
   29  H  9  S   -0.139324   0.012238   0.210662  -0.181472   0.128165
   30  H 10  S    0.129686  -0.093083  -0.056929  -0.014921   0.212485
   31  H 11  S   -0.247228   0.004606   0.018129   0.041890  -0.025390
   32  B 12  S   -0.122171   0.051593  -0.024353  -0.053524   0.024310
   33  B 12  S    0.285330  -0.122273   0.054830   0.127992  -0.061087
   34  B 12  X   -0.015922  -0.052469   0.041754  -0.006096   0.042299
   35  B 12  Y    0.026930  -0.041568   0.035580  -0.001355  -0.049614
   36  B 12  Z   -0.000766   0.020910   0.005132  -0.054805   0.030972
   37  H 13  S    0.143263  -0.138209   0.083275   0.049758  -0.040615
   38  H 14  S    0.131056  -0.056896   0.002707   0.127536  -0.046343
   39  H 15  S    0.174221  -0.030124   0.016005   0.055154  -0.091631
   40  H 16  S   -0.109208  -0.082796  -0.095411  -0.011494  -0.194702
   41  C 17  S   -0.003746  -0.003792   0.001384   0.002152   0.004548
   42  C 17  S    0.011933   0.012942  -0.005133  -0.007609  -0.017502
   43  C 17  X   -0.117643  -0.048171   0.142786   0.130620  -0.228606
   44  C 17  Y    0.111870   0.422488   0.045712  -0.200657  -0.215886
   45  C 17  Z    0.015152   0.074567   0.394873   0.294358  -0.009407
   46  H 18  S   -0.051164  -0.242203   0.184997   0.300298   0.154856
   47  H 19  S    0.048925  -0.057969  -0.330740  -0.238780   0.172480
   48  H 20  S    0.109255   0.341883   0.172585  -0.045271  -0.140796

                     21         22         23         24         25
                   -0.4700    -0.4658    -0.4607    -0.4477    -0.3955
                     A          A          A          A          A   
    1  C  1  S    0.030068   0.010290  -0.013440  -0.000298   0.007770
    2  C  1  S   -0.117051  -0.043979   0.057152   0.007291  -0.030193
    3  C  1  X   -0.169070   0.001509   0.157001   0.414876   0.030386
    4  C  1  Y   -0.163466  -0.226578   0.243300  -0.131197  -0.051170
    5  C  1  Z   -0.009416   0.180597   0.163796  -0.183003  -0.011319
    6  C  2  S   -0.005781   0.012038  -0.026228   0.002278   0.012567
    7  C  2  S    0.027646  -0.054384   0.108751  -0.013324  -0.042588
    8  C  2  X   -0.183575   0.078921   0.139405  -0.226392   0.019955
    9  C  2  Y   -0.048663   0.071580  -0.159868   0.230736   0.036411
   10  C  2  Z    0.061139   0.136432  -0.114973   0.205282   0.038781
   11  C  3  S   -0.025909  -0.001978   0.009831   0.004988  -0.014215
   12  C  3  S    0.116637   0.001253  -0.040103  -0.014784   0.047556
   13  C  3  X    0.384942  -0.077798   0.079324   0.020643   0.048586
   14  C  3  Y   -0.158887  -0.140587  -0.003397  -0.074568  -0.082100
   15  C  3  Z   -0.159879   0.063617   0.024810  -0.085044   0.182717
   16  C  4  S   -0.007037   0.001461   0.031204  -0.011208  -0.008610
   17  C  4  S    0.028377  -0.008075  -0.128638   0.040209   0.035360
   18  C  4  X   -0.369661   0.038431   0.168506  -0.034510  -0.047020
   19  C  4  Y    0.131398  -0.104104   0.348287   0.159259   0.080753
   20  C  4  Z    0.147606   0.173620   0.257446   0.065064  -0.116464
   21  C  5  S    0.008410   0.006934   0.010426  -0.010362   0.000825
   22  C  5  S   -0.039553  -0.030118  -0.045962   0.044945  -0.001740
   23  C  5  X    0.191947  -0.042160  -0.126590  -0.381321   0.018569
   24  C  5  Y   -0.124793   0.243058  -0.324132  -0.137321  -0.021238
   25  C  5  Z   -0.145104  -0.339711  -0.260592   0.027925   0.078333
   26  H  6  S    0.075163  -0.110912  -0.249156  -0.033618   0.011049
   27  H  7  S    0.071248   0.282882  -0.069543  -0.013823   0.026051
   28  H  8  S   -0.084697   0.203097   0.112720  -0.000777  -0.155272
   29  H  9  S   -0.165805  -0.125349   0.178156   0.089145   0.094077
   30  H 10  S    0.187770  -0.271484   0.123197  -0.120760   0.041816
   31  H 11  S    0.089502   0.384926   0.111702  -0.077757  -0.076356
   32  B 12  S   -0.006175  -0.028353  -0.004453   0.000046  -0.018029
   33  B 12  S    0.016543   0.068072   0.009575   0.001632   0.045659
   34  B 12  X    0.034538  -0.061936   0.012745  -0.027067  -0.267947
   35  B 12  Y   -0.009451   0.015099  -0.022334   0.012745  -0.261949
   36  B 12  Z   -0.050515  -0.034940  -0.052623   0.038838  -0.268667
   37  H 13  S    0.042097  -0.020375   0.009863  -0.008957  -0.397677
   38  H 14  S    0.046375   0.069903   0.061962  -0.046726   0.442768
   39  H 15  S   -0.028795   0.093861  -0.024461   0.035030   0.069460
   40  H 16  S   -0.208144  -0.055448  -0.013120  -0.147122   0.093818
   41  C 17  S   -0.010687   0.004795   0.003090  -0.017179   0.004991
   42  C 17  S    0.041523  -0.018569  -0.011671   0.066692  -0.019621
   43  C 17  X    0.191300  -0.087035  -0.092081   0.228884  -0.018503
   44  C 17  Y    0.132508  -0.033236   0.085717  -0.128817  -0.029621
   45  C 17  Z   -0.030136  -0.084342   0.059972  -0.162133   0.018446
   46  H 18  S   -0.109536  -0.025208  -0.034918   0.021452   0.033188
   47  H 19  S   -0.105600   0.117642  -0.001905   0.007628   0.006679
   48  H 20  S    0.062991  -0.058209   0.115515  -0.224905  -0.021631

                     26         27         28         29         30
                   -0.3922    -0.3267     0.2663     0.4712     0.5307
                     A          A          A          A          A   
    1  C  1  S   -0.004723  -0.002019  -0.009100   0.008046  -0.025191
    2  C  1  S    0.017127   0.007535   0.044484  -0.041566   0.135014
    3  C  1  X   -0.067324  -0.017253  -0.011134  -0.004375  -0.418304
    4  C  1  Y    0.064184   0.047864   0.038923  -0.043593   0.422282
    5  C  1  Z   -0.012179  -0.106791   0.069699   0.095046   0.304092
    6  C  2  S    0.001297  -0.003138   0.037059   0.020924   0.032785
    7  C  2  S   -0.003122   0.003716  -0.193073  -0.075854  -0.181391
    8  C  2  X    0.075215   0.178523   0.206048  -0.076433  -0.233167
    9  C  2  Y   -0.071906  -0.195951  -0.395473  -0.242725   0.443561
   10  C  2  Z   -0.012828   0.437480   0.609949   0.284092   0.295642
   11  C  3  S   -0.004533   0.007535  -0.035714   0.032618   0.038032
   12  C  3  S    0.016800  -0.033521   0.190235  -0.138722  -0.213845
   13  C  3  X    0.085536  -0.019512  -0.105310   0.131721  -0.363817
   14  C  3  Y   -0.086402  -0.321292   0.438665  -0.122872   0.276860
   15  C  3  Z    0.026453   0.335493  -0.574640   0.427534   0.181605
   16  C  4  S   -0.006596   0.004507   0.007980   0.005664  -0.009818
   17  C  4  S    0.025087  -0.019271  -0.038088  -0.027838   0.056880
   18  C  4  X   -0.068756   0.027851   0.069676  -0.013065  -0.374652
   19  C  4  Y    0.094158   0.027215   0.005904  -0.039861   0.445353
   20  C  4  Z   -0.014687  -0.092089  -0.048241   0.118119   0.319623
   21  C  5  S    0.000425   0.000380   0.002534  -0.013500  -0.045936
   22  C  5  S   -0.004594  -0.001674  -0.012475   0.072781   0.237415
   23  C  5  X    0.045106   0.009269  -0.018309  -0.015665  -0.195156
   24  C  5  Y   -0.035319  -0.024538  -0.020735  -0.019228   0.262957
   25  C  5  Z   -0.039286   0.046250  -0.007096   0.103097   0.258419
   26  H  6  S    0.036256   0.142900   0.121633   0.107774   0.071785
   27  H  7  S   -0.063491  -0.154429  -0.161900  -0.121169   0.069990
   28  H  8  S   -0.083745  -0.117399   0.156820  -0.151983   0.043111
   29  H  9  S    0.042870   0.123643  -0.115307   0.127879   0.004686
   30  H 10  S    0.054303   0.028757   0.006779  -0.063172   0.233990
   31  H 11  S    0.006371  -0.057711   0.001519   0.068361   0.044148
   32  B 12  S   -0.012594  -0.024088   0.002362  -0.096051   0.009992
   33  B 12  S    0.031583   0.033282  -0.014577   0.405488  -0.041751
   34  B 12  X   -0.371597   0.090586  -0.006108   0.155567  -0.051831
   35  B 12  Y    0.199153   0.262172  -0.054631  -0.663387   0.115141
   36  B 12  Z    0.226217  -0.190411   0.046721   0.686890  -0.015152
   37  H 13  S   -0.168357   0.296359  -0.269441   0.066881   0.010581
   38  H 14  S   -0.278886   0.078148   0.169996  -0.026353   0.075768
   39  H 15  S    0.530884   0.044552   0.081766  -0.039446  -0.087513
   40  H 16  S   -0.033173  -0.021469  -0.078740  -0.194785  -0.274195
   41  C 17  S    0.011918  -0.002238  -0.011567   0.028158   0.025691
   42  C 17  S   -0.044997   0.008416   0.057169  -0.156975  -0.147761
   43  C 17  X   -0.042208  -0.031681   0.093906  -0.119740  -0.139335
   44  C 17  Y   -0.043930   0.043442  -0.023233  -0.035786   0.159394
   45  C 17  Z    0.041315  -0.098938   0.003177   0.103175   0.147898
   46  H 18  S    0.054321  -0.140835  -0.184446  -0.048856   0.121123
   47  H 19  S   -0.010294   0.136548   0.135404   0.078766   0.135209
   48  H 20  S   -0.006978  -0.006290   0.020252   0.028426  -0.221224

                     31         32         33         34         35
                    0.5755     0.5924     0.6085     0.6400     0.6740
                     A          A          A          A          A   
    1  C  1  S   -0.066213   0.014212  -0.043445  -0.040468   0.053079
    2  C  1  S    0.357235  -0.096601   0.271809   0.250846  -0.325376
    3  C  1  X    0.441925  -0.109663   0.045599  -0.505349   0.177513
    4  C  1  Y    0.398399   0.295229  -0.110633   0.222981  -0.089163
    5  C  1  Z   -0.025891  -0.284477  -0.369211  -0.089356  -0.089018
    6  C  2  S    0.058601   0.069497  -0.095780   0.130931  -0.008979
    7  C  2  S   -0.316600  -0.413904   0.590574  -0.801982   0.033998
    8  C  2  X    0.277468   0.191659  -0.265551  -0.148482  -0.027318
    9  C  2  Y    0.259453  -0.037165  -0.060420  -0.024677  -0.185148
   10  C  2  Z    0.020259   0.032409   0.178551  -0.066369  -0.133849
   11  C  3  S   -0.045598   0.057328  -0.024576  -0.159653  -0.033810
   12  C  3  S    0.255371  -0.343958   0.166547   1.006929   0.224274
   13  C  3  X    0.405180  -0.092305   0.109326  -0.103040  -0.164438
   14  C  3  Y    0.064950  -0.283461   0.251280  -0.022602  -0.020897
   15  C  3  Z    0.091222  -0.011273   0.223509   0.182380   0.073221
   16  C  4  S    0.063195   0.003807  -0.048733   0.005938   0.076559
   17  C  4  S   -0.343367  -0.045730   0.308744  -0.025082  -0.454852
   18  C  4  X    0.444839  -0.228356   0.199090   0.294914   0.027673
   19  C  4  Y    0.182156   0.095501   0.264455  -0.359509   0.451584
   20  C  4  Z    0.155942  -0.368317  -0.256528  -0.018070   0.213845
   21  C  5  S    0.020191   0.045302  -0.036694  -0.025993  -0.051959
   22  C  5  S   -0.112742  -0.270693   0.240280   0.160981   0.295282
   23  C  5  X    0.571943  -0.282027   0.126606  -0.246321   0.047721
   24  C  5  Y    0.436343   0.294145   0.179820  -0.198631   0.489356
   25  C  5  Z    0.101869  -0.398650  -0.392112  -0.138235   0.311523
   26  H  6  S    0.133261  -0.199316  -0.443558  -0.424238   0.167977
   27  H  7  S    0.170492   0.466904   0.030795   0.112991   0.136895
   28  H  8  S   -0.107042   0.468639   0.085429  -0.232788   0.180988
   29  H  9  S   -0.167710  -0.080607  -0.580276   0.134424  -0.009976
   30  H 10  S    0.014984   0.622543  -0.001401  -0.052581   0.139749
   31  H 11  S   -0.031475  -0.392883  -0.567447  -0.126515  -0.035884
   32  B 12  S   -0.001746  -0.018252  -0.017286  -0.004489   0.005365
   33  B 12  S    0.004258   0.072974   0.096993   0.024141  -0.026442
   34  B 12  X    0.013440   0.130762  -0.058853   0.116817   0.091693
   35  B 12  Y   -0.056021  -0.206923   0.010865   0.091155   0.058386
   36  B 12  Z    0.040808   0.145593  -0.051858   0.041938  -0.009459
   37  H 13  S    0.022195  -0.000826   0.015550  -0.181999  -0.086769
   38  H 14  S   -0.012465  -0.030414  -0.061921   0.108373   0.033334
   39  H 15  S    0.029081   0.105639  -0.080787   0.038525   0.065068
   40  H 16  S   -0.231242   0.377702  -0.398962  -0.644095  -0.185004
   41  C 17  S   -0.049446  -0.020033   0.043041  -0.033858  -0.002519
   42  C 17  S    0.282530   0.108993  -0.241132   0.194819   0.014838
   43  C 17  X    0.346689   0.325849  -0.458034   0.144336  -0.111425
   44  C 17  Y    0.267094   0.010372  -0.040026  -0.050042  -0.694201
   45  C 17  Z   -0.065843  -0.116052   0.308251  -0.312097  -0.362559
   46  H 18  S    0.139926   0.014046  -0.125359   0.066403  -0.318430
   47  H 19  S    0.103990   0.093235   0.041745  -0.236158  -0.440534
   48  H 20  S   -0.283574   0.041146  -0.082162   0.148792   0.734162

                     36         37         38         39         40
                    0.6995     0.7099     0.7216     0.7277     0.7457
                     A          A          A          A          A   
    1  C  1  S   -0.024123  -0.118481  -0.130993   0.007313   0.056742
    2  C  1  S    0.148681   0.742119   0.809939  -0.070036  -0.342018
    3  C  1  X    0.123658  -0.051142   0.121132   0.392496  -0.349229
    4  C  1  Y   -0.148986  -0.152871  -0.126779   0.433267  -0.055742
    5  C  1  Z    0.297317   0.120549   0.139413  -0.260352  -0.168430
    6  C  2  S    0.002217   0.074458   0.059653  -0.023722  -0.005986
    7  C  2  S   -0.013164  -0.473319  -0.364908   0.143228   0.043713
    8  C  2  X   -0.042504   0.168061  -0.106497  -0.109872   0.243405
    9  C  2  Y   -0.072537   0.104416   0.101316  -0.064483  -0.061063
   10  C  2  Z    0.110825  -0.043962  -0.068328   0.166962   0.093907
   11  C  3  S   -0.010495   0.075823  -0.018208   0.044600   0.050162
   12  C  3  S    0.071255  -0.468769   0.123003  -0.266156  -0.339358
   13  C  3  X   -0.002881  -0.419739  -0.139368  -0.236461   0.106659
   14  C  3  Y   -0.010054  -0.169456  -0.082241   0.147885  -0.164065
   15  C  3  Z    0.054842  -0.021615   0.090795  -0.002259  -0.261311
   16  C  4  S    0.019524  -0.123352   0.032985  -0.142571   0.017589
   17  C  4  S   -0.124974   0.770492  -0.223626   0.878701  -0.095436
   18  C  4  X   -0.075180  -0.090829  -0.311370  -0.087579   0.201551
   19  C  4  Y    0.149643   0.329280  -0.067627  -0.275989   0.105708
   20  C  4  Z   -0.368463   0.222637  -0.214148   0.226940   0.424118
   21  C  5  S    0.015632  -0.032778   0.088129   0.139511  -0.130997
   22  C  5  S   -0.094208   0.234005  -0.540270  -0.856580   0.814894
   23  C  5  X    0.005366   0.393015   0.194951   0.114921  -0.088843
   24  C  5  Y    0.000193  -0.114349   0.080994  -0.064522   0.089033
   25  C  5  Z   -0.075420  -0.210048  -0.006845  -0.117978  -0.003226
   26  H  6  S    0.206537  -0.292432  -0.223404   0.078829  -0.108615
   27  H  7  S   -0.375140  -0.489325  -0.496925   0.465855   0.218500
   28  H  8  S    0.414849  -0.341592   0.349113  -0.605761  -0.296715
   29  H  9  S   -0.159427  -0.421125   0.208314  -0.090324   0.055217
   30  H 10  S    0.050615  -0.348201   0.195511   0.293494  -0.242792
   31  H 11  S   -0.031016  -0.239858   0.203135   0.288116  -0.375089
   32  B 12  S    0.003414  -0.025591  -0.016863   0.007579  -0.020746
   33  B 12  S   -0.019938   0.119522   0.086219  -0.042762   0.098753
   34  B 12  X    0.011776   0.108171  -0.003509   0.039596   0.034868
   35  B 12  Y   -0.050157  -0.004231   0.022399   0.162213  -0.080189
   36  B 12  Z    0.034700   0.089281   0.040998   0.185080   0.007858
   37  H 13  S    0.023056  -0.084036  -0.060708  -0.094697  -0.031576
   38  H 14  S    0.030368   0.043369   0.007548   0.228661  -0.059644
   39  H 15  S    0.012608  -0.032571  -0.037140  -0.066660   0.028625
   40  H 16  S   -0.060256   0.300998  -0.062217   0.021936   0.436037
   41  C 17  S    0.012050   0.006139  -0.157716  -0.018744  -0.140623
   42  C 17  S   -0.074906  -0.056717   1.008142   0.126825   0.909993
   43  C 17  X   -0.401652   0.355161  -0.195205  -0.384804  -0.345975
   44  C 17  Y    0.469165  -0.175498  -0.210135  -0.075637   0.211074
   45  C 17  Z   -0.724571  -0.264575   0.268669  -0.215365  -0.089156
   46  H 18  S    0.803094   0.072401  -0.703277  -0.002784  -0.194404
   47  H 19  S   -0.667340   0.051907  -0.393429  -0.435925  -0.616627
   48  H 20  S   -0.074686   0.328985  -0.435093   0.030220  -0.573220

                     41         42         43         44         45
                    0.7563     0.7867     0.8188     0.8279     0.8566
                     A          A          A          A          A   
    1  C  1  S   -0.084782  -0.043111  -0.033376  -0.062121  -0.033743
    2  C  1  S    0.545606   0.288399   0.212898   0.390658   0.214388
    3  C  1  X   -0.005510  -0.239181   0.055131  -0.300785   0.077363
    4  C  1  Y   -0.148064  -0.464969  -0.157048   0.383206   0.168119
    5  C  1  Z   -0.608496  -0.191787   0.431043  -0.108007   0.308356
    6  C  2  S   -0.030307  -0.023516   0.002488   0.004795  -0.023146
    7  C  2  S    0.189656   0.149850   0.004897  -0.004451   0.137837
    8  C  2  X   -0.041946   0.076353   0.010460  -0.052965  -0.436869
    9  C  2  Y   -0.151796  -0.055469   0.204370   0.510250   0.332278
   10  C  2  Z    0.157953  -0.026601   0.132488   0.466336   0.195552
   11  C  3  S    0.012974   0.004579  -0.003752   0.028914   0.013718
   12  C  3  S   -0.086742  -0.033900   0.007640  -0.227107  -0.095424
   13  C  3  X   -0.068555   0.132867   0.195530   0.407330   0.249593
   14  C  3  Y    0.108878  -0.091771   0.092969  -0.060057  -0.185424
   15  C  3  Z   -0.141422  -0.062076  -0.146426  -0.205548  -0.147299
   16  C  4  S    0.090165  -0.033408  -0.000929   0.011679   0.029536
   17  C  4  S   -0.581784   0.224235   0.009428  -0.073462  -0.189323
   18  C  4  X   -0.446322   0.461633   0.149736   0.177386   0.067397
   19  C  4  Y   -0.245686   0.167972  -0.419573   0.022662  -0.213766
   20  C  4  Z    0.390666   0.117704   0.341211  -0.259082   0.086594
   21  C  5  S    0.000095   0.082100   0.013730   0.021387  -0.009805
   22  C  5  S    0.001559  -0.541498  -0.087871  -0.135279   0.073708
   23  C  5  X    0.369490  -0.473693  -0.281649   0.084135   0.081941
   24  C  5  Y    0.239193   0.353283   0.471342  -0.327848   0.073753
   25  C  5  Z    0.087441   0.483422  -0.509910   0.274880  -0.263184
   26  H  6  S   -0.704714  -0.447366   0.220675  -0.286051   0.187191
   27  H  7  S   -0.012142  -0.345731  -0.402438   0.137539  -0.123109
   28  H  8  S    0.070487  -0.318966  -0.400895   0.139057  -0.069531
   29  H  9  S    0.757374  -0.374434   0.283982  -0.196580   0.215563
   30  H 10  S   -0.053778   0.658573   0.549905  -0.224810   0.006821
   31  H 11  S   -0.020031   0.556055  -0.460848   0.367162  -0.272411
   32  B 12  S    0.018901  -0.005613  -0.022291   0.039740   0.026319
   33  B 12  S   -0.101832   0.033232   0.132086  -0.236752  -0.148175
   34  B 12  X   -0.047620   0.266255  -0.518018  -0.291915   0.933062
   35  B 12  Y   -0.049082  -0.028413  -0.148341  -0.441287  -0.000107
   36  B 12  Z   -0.034024  -0.083090  -0.167132  -0.237408  -0.204461
   37  H 13  S    0.055724  -0.167126   0.361110   0.531202  -0.553454
   38  H 14  S    0.026676  -0.091354  -0.252868  -0.274538  -0.037790
   39  H 15  S    0.034160   0.215784  -0.349018   0.117821   0.778448
   40  H 16  S    0.042290   0.124779   0.039431   0.270282   0.247187
   41  C 17  S    0.069437   0.012539   0.017897   0.017519   0.050189
   42  C 17  S   -0.444846  -0.080386  -0.116514  -0.108610  -0.322295
   43  C 17  X   -0.062600   0.026629  -0.009843  -0.190570  -0.236241
   44  C 17  Y    0.184983   0.154153  -0.194440  -0.398366  -0.131263
   45  C 17  Z   -0.140234   0.006656  -0.101182  -0.197036   0.104524
   46  H 18  S    0.380508   0.140604  -0.019849  -0.119324  -0.007915
   47  H 19  S    0.093051   0.078754  -0.048454  -0.225468   0.044680
   48  H 20  S    0.096513  -0.083937   0.234723   0.352901   0.097951

                     46         47         48
                    0.8734     0.8921     0.9839
                     A          A          A   
    1  C  1  S   -0.027301  -0.015013   0.010352
    2  C  1  S    0.183792   0.091482  -0.061782
    3  C  1  X   -0.117933  -0.030183  -0.188818
    4  C  1  Y   -0.023169   0.179974  -0.187851
    5  C  1  Z    0.058639  -0.039585  -0.042467
    6  C  2  S   -0.019020   0.015752  -0.089787
    7  C  2  S    0.112764  -0.095728   0.689037
    8  C  2  X   -0.166389  -0.190128   0.895419
    9  C  2  Y    0.229846   0.029480   0.536920
   10  C  2  Z    0.074460   0.193420   0.054923
   11  C  3  S    0.010687   0.012278   0.099133
   12  C  3  S   -0.085580  -0.074629  -0.735589
   13  C  3  X    0.370966   0.202974   0.525885
   14  C  3  Y   -0.313353  -0.260942   0.749112
   15  C  3  Z   -0.221303  -0.123620   0.471679
   16  C  4  S    0.044423   0.032559  -0.010387
   17  C  4  S   -0.288807  -0.216143   0.061881
   18  C  4  X    0.224394   0.073558  -0.252818
   19  C  4  Y    0.004723   0.021487  -0.174858
   20  C  4  Z   -0.081682  -0.087734  -0.101910
   21  C  5  S   -0.016528   0.006230  -0.000327
   22  C  5  S    0.103826  -0.042757   0.002730
   23  C  5  X   -0.049883   0.058364  -0.122949
   24  C  5  Y    0.081231  -0.047208  -0.121582
   25  C  5  Z    0.010337   0.120294  -0.069252
   26  H  6  S   -0.118384  -0.023705  -0.092717
   27  H  7  S   -0.106775   0.083869  -0.062219
   28  H  8  S    0.081586   0.106145   0.074108
   29  H  9  S   -0.011245   0.049433   0.143947
   30  H 10  S    0.032205  -0.055902  -0.005608
   31  H 11  S   -0.068434   0.130820  -0.020063
   32  B 12  S    0.086427  -0.247420  -0.031827
   33  B 12  S   -0.509012   1.452379   0.192447
   34  B 12  X   -0.179712  -0.040171   0.277130
   35  B 12  Y    0.587368   0.399171   0.221052
   36  B 12  Z    0.812295  -0.019803   0.126432
   37  H 13  S    0.030812  -0.796514  -0.352736
   38  H 14  S    1.060457  -0.498398   0.099001
   39  H 15  S   -0.320741  -0.836944  -0.009661
   40  H 16  S    0.299828   0.246989  -0.310524
   41  C 17  S    0.029228   0.032136  -0.035872
   42  C 17  S   -0.190713  -0.214284   0.238620
   43  C 17  X   -0.076589  -0.072661   0.154590
   44  C 17  Y   -0.097477  -0.028053  -0.190588
   45  C 17  Z    0.046582  -0.038131  -0.244445
   46  H 18  S   -0.007014   0.071599  -0.071305
   47  H 19  S    0.054927   0.029897  -0.134524
   48  H 20  S    0.100700   0.124186   0.152329
 ...... END OF RHF CALCULATION ......
 STEP CPU TIME =     0.13 TOTAL CPU TIME =          0.4 (      0.0 MIN)
 TOTAL WALL CLOCK TIME=          0.5 SECONDS, CPU UTILIZATION IS    93.33%

     ----------------------------------------------------------------
     PROPERTY VALUES FOR THE RHF   SELF-CONSISTENT FIELD WAVEFUNCTION
     ----------------------------------------------------------------

          -----------------
          ENERGY COMPONENTS
          -----------------

         WAVEFUNCTION NORMALIZATION =       1.0000000000

                ONE ELECTRON ENERGY =    -959.5176735549
                TWO ELECTRON ENERGY =     393.5331557180
           NUCLEAR REPULSION ENERGY =     309.6445630715
                                      ------------------
                       TOTAL ENERGY =    -256.3399547653

 ELECTRON-ELECTRON POTENTIAL ENERGY =     393.5331557180
  NUCLEUS-ELECTRON POTENTIAL ENERGY =   -1213.9965730529
   NUCLEUS-NUCLEUS POTENTIAL ENERGY =     309.6445630715
                                      ------------------
             TOTAL POTENTIAL ENERGY =    -510.8188542633
               TOTAL KINETIC ENERGY =     254.4788994980
                 VIRIAL RATIO (V/T) =       2.0073132007

          ---------------------------------------
          MULLIKEN AND LOWDIN POPULATION ANALYSES
          ---------------------------------------

     ATOMIC MULLIKEN POPULATION IN EACH MOLECULAR ORBITAL

                      1          2          3          4          5

                  2.000000   2.000000   2.000000   2.000000   2.000000

    1            -0.000675  -0.000017   0.000302   0.000134   2.002394
    2             1.928327   0.073270   0.000005  -0.000759  -0.000729
    3             0.073385   1.928530  -0.000729   0.000001   0.000005
    4            -0.000027  -0.000656   2.002770   0.000005   0.000298
    5             0.000002   0.000001  -0.000401   0.000000  -0.000148
    6            -0.000000   0.000000   0.000000  -0.000000  -0.000977
    7            -0.000001  -0.000000  -0.000000   0.000000  -0.000982
    8            -0.000000  -0.000001  -0.000981  -0.000000  -0.000000
    9            -0.000000   0.000001  -0.000975  -0.000000  -0.000000
   10            -0.000000  -0.000000   0.000002   0.000000   0.000002
   11             0.000000   0.000000   0.000002  -0.000000   0.000002
   12            -0.000298  -0.000215  -0.000001  -0.000001  -0.000000
   13            -0.000000  -0.000003  -0.000000  -0.000000   0.000000
   14             0.000003  -0.000000   0.000000   0.000000  -0.000001
   15             0.000003   0.000000  -0.000000  -0.000000  -0.000000
   16            -0.000046  -0.000889   0.000001  -0.000000  -0.000000
   17            -0.000671  -0.000023   0.000006   2.003572   0.000135
   18            -0.000001  -0.000000  -0.000000  -0.000984  -0.000000
   19            -0.000001   0.000000  -0.000000  -0.000983  -0.000000
   20             0.000001  -0.000000   0.000000  -0.000986  -0.000000

                      6          7          8          9         10

                  2.000000   2.000000   2.000000   2.000000   2.000000

    1            -0.000156  -0.000000   0.270132   0.069009   0.529486
    2             0.000001  -0.000202   0.520971   0.311539   0.160501
    3             0.000002  -0.000274   0.482491   0.094013   0.401463
    4            -0.000399  -0.000001   0.252459   0.292397   0.205991
    5             2.002532  -0.000000   0.201905   0.364281   0.209122
    6             0.000000  -0.000000   0.017359   0.001629   0.093201
    7            -0.000000  -0.000000   0.021054   0.001772   0.095097
    8            -0.000000  -0.000000   0.019193   0.038642   0.027024
    9             0.000000   0.000000   0.015715   0.036729   0.028124
   10            -0.000988  -0.000000   0.012619   0.049938   0.028632
   11            -0.000992  -0.000000   0.014892   0.046664   0.024120
   12            -0.000001   2.004021   0.027069   0.010109   0.017945
   13             0.000000  -0.001195   0.003581   0.000076   0.007535
   14             0.000000  -0.001169   0.002493   0.000381   0.000019
   15            -0.000000  -0.001176   0.001510   0.002265   0.000902
   16            -0.000000  -0.000002   0.029483   0.003936   0.074009
   17             0.000001  -0.000001   0.088068   0.484364   0.064807
   18            -0.000000  -0.000000   0.006623   0.064816   0.013951
   19            -0.000000  -0.000000   0.005711   0.060676   0.013201
   20            -0.000000  -0.000000   0.006671   0.066766   0.004869

                     11         12         13         14         15

                  2.000000   2.000000   2.000000   2.000000   2.000000

    1             0.150004   0.262969   0.281234   0.145721   0.110137
    2             0.204206   0.142329   0.243744   0.183382   0.306046
    3             0.116938   0.146646   0.593411   0.196348   0.239434
    4             0.279646   0.312651   0.083084   0.161137   0.333224
    5             0.145632   0.447853   0.082798   0.110027   0.218735
    6             0.025657   0.053596   0.082616   0.062435   0.004838
    7             0.023680   0.082763   0.067077   0.025588   0.020556
    8             0.058489   0.106705   0.004162   0.016166   0.090049
    9             0.061475   0.074998   0.001346   0.087476   0.053798
   10             0.025018   0.138821   0.006318   0.037096   0.101712
   11             0.018820   0.157457   0.001249   0.029443   0.000165
   12             0.011743   0.028033   0.025557   0.423124   0.021229
   13             0.001197   0.004094   0.022592   0.157015   0.000076
   14             0.001549   0.003165   0.000263   0.157347   0.000155
   15             0.000213   0.006323   0.002795   0.104111   0.012804
   16             0.007098   0.009312   0.376471   0.016699   0.030389
   17             0.540409   0.014490   0.078739   0.052943   0.322640
   18             0.112423   0.003101   0.010598   0.015127   0.058163
   19             0.108171   0.001401   0.009273   0.018507   0.047495
   20             0.107633   0.003291   0.026674   0.000310   0.028355

                     16         17         18         19         20

                  2.000000   2.000000   2.000000   2.000000   2.000000

    1             0.174464   0.213493   0.145049   0.235141   0.196599
    2             0.063256   0.132382   0.086465   0.003770   0.286104
    3             0.055382   0.075387   0.054456   0.014416   0.278101
    4             0.173162   0.046054   0.233288   0.283073   0.086201
    5             0.350010   0.039238   0.015762   0.018214   0.248981
    6             0.042994   0.122241   0.015342   0.083249   0.087305
    7             0.065591   0.025768   0.112352   0.125566   0.005685
    8             0.061361   0.038440   0.071425   0.169183   0.000830
    9             0.059165   0.000368   0.125933   0.087335   0.042309
   10             0.050830   0.024549   0.008923   0.000548   0.117588
   11             0.189600   0.000068   0.001029   0.005019   0.001083
   12             0.263451   0.070485   0.023800   0.062487   0.035745
   13             0.080580   0.069992   0.024971   0.008774   0.005926
   14             0.069041   0.012352   0.000036   0.058161   0.007223
   15             0.124581   0.003499   0.000973   0.010935   0.028798
   16             0.033371   0.019315   0.024296   0.000275   0.098262
   17             0.090620   0.601496   0.568828   0.438789   0.284929
   18             0.007310   0.163484   0.095197   0.236617   0.061663
   19             0.007811   0.009297   0.308640   0.152986   0.077278
   20             0.037421   0.332090   0.083236   0.005462   0.049389

                     21         22         23         24         25

                  2.000000   2.000000   2.000000   2.000000   2.000000

    1             0.161763   0.222156   0.288989   0.583323   0.009228
    2             0.095011   0.078875   0.153761   0.348122   0.007577
    3             0.509536   0.079887   0.020553   0.030956   0.117291
    4             0.468583   0.110831   0.583117   0.084215   0.052634
    5             0.196706   0.472326   0.501772   0.442394   0.016301
    6             0.014583   0.026855   0.148074   0.002695   0.000410
    7             0.012896   0.185773   0.012197   0.000440   0.001539
    8             0.017866   0.094574   0.031499   0.000004   0.049925
    9             0.067087   0.035836   0.078005   0.017908   0.016878
   10             0.085954   0.168184   0.036994   0.034480   0.003491
   11             0.020501   0.353898   0.030917   0.014798   0.011543
   12             0.016755   0.034964   0.014061   0.009153   0.751591
   13             0.004934   0.001107   0.000359   0.000249   0.402739
   14             0.006932   0.015546   0.011412   0.006459   0.522270
   15             0.002516   0.027319   0.001727   0.003414   0.013302
   16             0.102372   0.007247   0.000322   0.049191   0.015952
   17             0.151048   0.042379   0.052067   0.252812   0.003916
   18             0.029023   0.001295   0.002702   0.000724   0.002382
   19             0.027520   0.033293   0.000004   0.000030   0.000150
   20             0.008414   0.007656   0.031466   0.118633   0.000884

                     26         27

                  2.000000   2.000000

    1             0.020677   0.029491
    2             0.022591   0.603352
    3             0.035195   0.486557
    4             0.032473   0.021394
    5             0.011853   0.005715
    6             0.002379   0.037997
    7             0.008273   0.044224
    8             0.014593   0.025220
    9             0.003311   0.029568
   10             0.006044   0.001388
   11             0.000022   0.005911
   12             0.796801   0.382436
   13             0.071397   0.206841
   14             0.202892   0.015457
   15             0.749221   0.005249
   16             0.002005   0.000735
   17             0.013974   0.026554
   18             0.006239   0.037150
   19             0.000097   0.034672
   20            -0.000039   0.000087

               ----- POPULATIONS IN EACH AO -----
                             MULLIKEN      LOWDIN
              1  C  1  S      1.99211     1.98518
              2  C  1  S      1.18385     1.03381
              3  C  1  X      0.96187     0.99722
              4  C  1  Y      0.95960     0.99531
              5  C  1  Z      1.00361     1.02843
              6  C  2  S      1.99278     1.98601
              7  C  2  S      1.17371     1.06049
              8  C  2  X      0.97020     1.00734
              9  C  2  Y      0.88585     0.91484
             10  C  2  Z      0.93135     0.94315
             11  C  3  S      1.99273     1.98634
             12  C  3  S      1.18498     1.04876
             13  C  3  X      0.95599     0.99624
             14  C  3  Y      0.97671     0.99812
             15  C  3  Z      0.91897     0.92222
             16  C  4  S      1.99209     1.98516
             17  C  4  S      1.18222     1.03117
             18  C  4  X      0.94419     0.98256
             19  C  4  Y      0.98503     1.01506
             20  C  4  Z      0.99408     1.02122
             21  C  5  S      1.99210     1.98511
             22  C  5  S      1.18167     1.03134
             23  C  5  X      0.95349     0.98940
             24  C  5  Y      0.97409     1.00561
             25  C  5  Z      1.00026     1.02736
             26  H  6  S      0.92448     0.96023
             27  H  7  S      0.93691     0.96917
             28  H  8  S      0.93437     0.96723
             29  H  9  S      0.92239     0.95864
             30  H 10  S      0.93814     0.97053
             31  H 11  S      0.92621     0.96165
             32  B 12  S      1.98892     1.97841
             33  B 12  S      0.90471     0.85947
             34  B 12  X      0.83874     0.89304
             35  B 12  Y      0.66434     0.71682
             36  B 12  Z      0.63333     0.68803
             37  H 13  S      1.07283     1.05168
             38  H 14  S      1.09199     1.07447
             39  H 15  S      1.10129     1.08446
             40  H 16  S      0.89980     0.94076
             41  C 17  S      1.99200     1.98537
             42  C 17  S      1.18356     1.01171
             43  C 17  X      0.95040     0.99037
             44  C 17  Y      1.03419     1.05554
             45  C 17  Z      1.01675     1.04107
             46  H 18  S      0.92760     0.95976
             47  H 19  S      0.91523     0.95096
             48  H 20  S      0.91828     0.95317

[...]
 18   H            X  0.00707565 -0.04793984  0.00030445  0.00124551 -0.00003472
                   Y -0.00301018 -0.04878367 -0.00003055 -0.00022976 -0.00047973
                   Z -0.00186121 -0.03318387  0.00030526 -0.00009628  0.00037567
 19   H            X  0.00004266 -0.06182181 -0.00047741 -0.00175555  0.00159128
                   Y  0.00515767 -0.06088546 -0.00082701 -0.00113042  0.00099709
                   Z -0.00191279  0.04778077 -0.00055910 -0.00207164  0.00119044
 20   H            X  0.00404292  0.08538776 -0.00019676 -0.00015345 -0.00006638
                   Y  0.00452335  0.05134998  0.00012218  0.00170341 -0.00141980
                   Z -0.00816421 -0.03409125  0.00070702  0.00129585 -0.00066975

 TRANS. SAYVETZ    X  0.00000007 -0.00000039  0.00000028  0.00000012 -0.00000004
                   Y -0.00000016  0.00000030  0.00000006  0.00000028 -0.00000004
                   Z -0.00000004  0.00000003 -0.00000034 -0.00000010  0.00000006
               TOTAL  0.00000018  0.00000050  0.00000044  0.00000032  0.00000008

   ROT. SAYVETZ    X -0.00025680 -0.00021005  0.00011875 -0.00014897 -0.00005514
                   Y -0.00010603 -0.00028480 -0.00019524 -0.00001380 -0.00011217
                   Z -0.00012474 -0.00010228  0.00000052  0.00005624  0.00009167
               TOTAL  0.00030455  0.00036836  0.00022852  0.00015983  0.00015500

                           51          52          53          54          55
       FREQUENCY:      3569.24     3609.23     3609.92     3632.48     3723.16  
        SYMMETRY:         A           A           A           A           A   
    REDUCED MASS:      1.03948     1.06676     1.06701     1.06887     1.10989
    IR INTENSITY:      0.00382     0.01477     0.02812     0.02411     0.00292

  1   C            X  0.00039774 -0.03461240  0.00841123 -0.00749011 -0.02398176
                   Y  0.00040755 -0.05697204  0.01476226 -0.00852651  0.03803783
                   Z -0.00002658 -0.01366732  0.00375516 -0.00081329 -0.07799133
  2   C            X  0.00244046 -0.00030836  0.00048995 -0.00061745  0.00003219
                   Y -0.00007774  0.00119011 -0.00046285  0.00014816  0.00010586
                   Z -0.00100340  0.00109259 -0.00044291  0.00032562  0.00046604
  3   C            X  0.00033732  0.00047873  0.00169079 -0.00012085 -0.00006808
                   Y  0.00023927  0.00052313  0.00162901 -0.00053064  0.00051720
                   Z  0.00003523  0.00018847  0.00118756 -0.00056806  0.00019588
  4   C            X  0.00023437 -0.01627876 -0.06080883  0.00873961 -0.00001588
                   Y  0.00008733 -0.00579897 -0.01997827  0.00457866 -0.00876809
                   Z  0.00010195 -0.00642042 -0.02262073  0.00549565  0.01098833
  5   C            X  0.00005383 -0.00192025  0.00871223  0.04534827  0.00201111
                   Y -0.00008215  0.00583789 -0.00560705 -0.03843685 -0.00443132
                   Z -0.00006550  0.00379626 -0.00443864 -0.03746754  0.00595776
  6   H            X -0.00163419  0.28947389 -0.07265411  0.03919848  0.35948374
                   Y  0.00004160  0.02965647 -0.00763553  0.00309833  0.04729813
                   Z -0.00287264  0.51003779 -0.12865322  0.07089401  0.62538660
  7   H            X -0.00049874  0.09357523 -0.02376292  0.01196341 -0.08003658
                   Y -0.00448622  0.61182954 -0.15507063  0.09171774 -0.50217465
                   Z  0.00248296 -0.36180828  0.09155674 -0.05425193  0.29112262
  8   H            X -0.00138961  0.11479260  0.41969105 -0.06323964 -0.05294883
                   Y  0.00069970 -0.05085772 -0.18535685  0.03004427  0.02242609
                   Z -0.00212470  0.15402209  0.56286894 -0.08418705 -0.07017059
  9   H            X -0.00119799  0.07137911  0.25897176 -0.03394504  0.05349477
                   Y -0.00181858  0.11147220  0.40251090 -0.05397295  0.08143673
                   Z  0.00149910 -0.08386003 -0.30410834  0.04184373 -0.05989074
 10   H            X -0.00063357  0.04215274 -0.07214124 -0.38907507 -0.02554773
                   Y  0.00102583 -0.05912991  0.10170953  0.55311655  0.04014858
                   Z -0.00037551  0.02045530 -0.03500444 -0.19941975 -0.01372191
 11   H            X -0.00018875  0.01303690 -0.01796974 -0.10914346  0.00635866
                   Y -0.00026234  0.01323399 -0.01884256 -0.12817714  0.00946561
                   Z  0.00115384 -0.05861252  0.10035271  0.60729076 -0.04870796
 12   B            X -0.00020132 -0.00001650  0.00015459  0.00002261  0.00005890
                   Y  0.00002607  0.00011617 -0.00030451  0.00001934 -0.00001768
                   Z -0.00010597 -0.00001775  0.00000525 -0.00019710 -0.00021158
 13   H            X  0.00051128  0.00047874  0.00077249  0.00002692  0.00019323
                   Y  0.00088010  0.00085886  0.00078190  0.00005318  0.00057942
                   Z  0.00049514  0.00026921  0.00028630  0.00006368  0.00051320
 14   H            X -0.00002695  0.00028208 -0.00050430 -0.00143810 -0.00027206
                   Y -0.00021477  0.00047573  0.00070807  0.00153729  0.00113892
                   Z -0.00000290  0.00026401  0.00066101  0.00212964  0.00117545
 15   H            X  0.00265134  0.00078348  0.00032117 -0.00002313 -0.00024810
                   Y  0.00069084 -0.00017560  0.00022184 -0.00010761 -0.00000694
                   Z -0.00086505 -0.00002709 -0.00004015  0.00004278  0.00015402
 16   H            X -0.00010801  0.00071750  0.00053153 -0.00142646  0.00019596
                   Y -0.00264834 -0.00150455 -0.02150431  0.01125233 -0.00289655
                   Z -0.00270442 -0.00091370 -0.01990087  0.01113186 -0.00490381
 17   C            X -0.04414373 -0.00038938 -0.00009331  0.00009313  0.00089638
                   Y -0.01119588  0.00022239 -0.00000352  0.00013278 -0.00129880
                   Z  0.02623870  0.00003973  0.00013263 -0.00005263  0.00122754
 18   H            X  0.00643639  0.00007185  0.00018068  0.00002215 -0.00003456
                   Y  0.47363583  0.00192193  0.00119312 -0.00102141  0.01077378
                   Z -0.43555362 -0.00157089 -0.00116638  0.00092954 -0.00985690
 19   H            X  0.37008462  0.00321678  0.00029562 -0.00029456 -0.00795335
                   Y  0.10062982  0.00077589  0.00017934 -0.00014193 -0.00234450
                   Z  0.36977397  0.00308726  0.00025790 -0.00045530 -0.00812015
 20   H            X  0.11256284  0.00164338 -0.00012122 -0.00002205 -0.00178446
                   Y -0.44198884 -0.00498055 -0.00054345  0.00003036  0.00664748
                   Z -0.23075720 -0.00289566 -0.00013442  0.00002237  0.00368915

 TRANS. SAYVETZ    X -0.00000027 -0.00000019 -0.00000016  0.00000013 -0.00000008
                   Y -0.00000039 -0.00000049 -0.00000003 -0.00000024 -0.00000010
                   Z  0.00000068  0.00000027 -0.00000069  0.00000024 -0.00000001
               TOTAL  0.00000083  0.00000058  0.00000071  0.00000037  0.00000013

   ROT. SAYVETZ    X -0.00029304  0.00048808  0.00005744 -0.00040982  0.00003753
                   Y  0.00007842 -0.00026306 -0.00030876 -0.00035320 -0.00002273
                   Z  0.00022034 -0.00028737 -0.00021516 -0.00018060  0.00000855
               TOTAL  0.00037493  0.00062451  0.00038069  0.00057037  0.00004470

                           56          57          58          59          60
       FREQUENCY:      3725.71     3738.59     3744.08     3749.15     3768.63  
        SYMMETRY:         A           A           A           A           A   
    REDUCED MASS:      1.11043     1.10689     1.10040     1.11088     1.11026
    IR INTENSITY:      0.00009     0.00552     0.40276     0.00942     0.01132

  1   C            X  0.00367753  0.00037833  0.00070460 -0.00189824 -0.00029229
                   Y -0.00534995 -0.00093640  0.00064917  0.00356772 -0.00014813
                   Z  0.01166963  0.00171130  0.00030901 -0.00653064  0.00026734
  2   C            X -0.00008569 -0.00043016  0.00528349  0.00019477 -0.00044648
                   Y -0.00038350  0.00019671  0.00419776  0.00014638  0.00004489
                   Z -0.00007529  0.00024613  0.00174475  0.00000978  0.00038430
  3   C            X  0.00028387  0.00028650  0.00253883  0.00000748  0.00025946
                   Y  0.00321251 -0.00539049 -0.06217385 -0.00140393  0.00054663
                   Z  0.00260051 -0.00514272 -0.06016364 -0.00130686  0.00023544
  4   C            X -0.00179754 -0.00039961 -0.00433063 -0.00030249 -0.00000563
                   Y -0.05645362 -0.00067025 -0.00232982  0.00532057  0.00000094
                   Z  0.06988603  0.00097143  0.00423779 -0.00677455  0.00005117
  5   C            X -0.00250990 -0.00028263 -0.00053685 -0.01831819  0.00001832
                   Y  0.00722219  0.00069285 -0.00003392  0.05276691  0.00004540
                   Z -0.00878136 -0.00076086  0.00197692 -0.07198494 -0.00003110
  6   H            X -0.05317207 -0.00724196 -0.00337291  0.03285767 -0.00004730
                   Y -0.00713943 -0.00113544 -0.00032673  0.00430268  0.00013072
                   Z -0.09361729 -0.01284252 -0.00431232  0.05454409  0.00009800
  7   H            X  0.01142662  0.00200086 -0.00117282 -0.01080399  0.00017426
                   Y  0.07234985  0.01284429 -0.00391483 -0.05181385  0.00179445
                   Z -0.04186778 -0.00735370  0.00241214  0.02972453 -0.00106229
  8   H            X -0.33130929 -0.00228047 -0.00185920  0.03890387 -0.00007464
                   Y  0.14108241  0.00103509  0.00086545 -0.01385845  0.00003485
                   Z -0.43767332 -0.00374911 -0.00617806  0.05155736 -0.00017827
  9   H            X  0.34390224  0.00461097  0.02676122 -0.03341328  0.00032865
                   Y  0.52032433  0.00714591  0.03844573 -0.05165731  0.00039638
                   Z -0.38620223 -0.00533176 -0.02958530  0.03667645 -0.00029040
 10   H            X  0.04343201  0.00409105 -0.00186167  0.34378971 -0.00007459
                   Y -0.05926664 -0.00589142  0.00251407 -0.48613476  0.00004345
                   Z  0.02236872  0.00209186 -0.00061243  0.16953757 -0.00000400
 11   H            X -0.01354047 -0.00124388  0.00325827 -0.12678503 -0.00005855
                   Y -0.01732772 -0.00146482  0.00352757 -0.13576991 -0.00009845
                   Z  0.07267059  0.00697542 -0.01838524  0.67544247  0.00052033
 12   B            X -0.00013392  0.00049224  0.00057096  0.00016434  0.00003735
                   Y -0.00006732 -0.00000553 -0.00017452 -0.00013298  0.00007755
                   Z  0.00011137  0.00004089  0.00044974 -0.00032849 -0.00000041
 13   H            X  0.00043892 -0.00056611  0.00084100  0.00017883  0.00002032
                   Y  0.00015047 -0.00007345  0.00359116  0.00055002  0.00000404
                   Z -0.00032885 -0.00022715  0.00244522  0.00053690 -0.00014196
 14   H            X  0.00040465 -0.00066363  0.00044903 -0.00199865 -0.00016072
                   Y -0.00009157  0.00036697 -0.00020619  0.00218496  0.00003798
                   Z -0.00028069  0.00068757  0.00233689  0.00244674  0.00015792
 15   H            X  0.00125717 -0.00376606 -0.00167826 -0.00085049  0.00010697
                   Y  0.00021729 -0.00032269 -0.00079267 -0.00000700  0.00026807
                   Z -0.00053533  0.00067365  0.00183185  0.00039702  0.00061625
 16   H            X  0.00337152 -0.00571772 -0.06474532 -0.00139032  0.00064769
                   Y -0.03298173  0.05960912  0.66989200  0.01446876 -0.00404832
                   Z -0.03328940  0.05812925  0.66153961  0.01384670 -0.00372411
 17   C            X -0.00038935  0.03839676 -0.00409277 -0.00038114 -0.01857949
                   Y  0.00067587 -0.05529848  0.00438884  0.00054535 -0.07140190
                   Z -0.00054010  0.05955915 -0.00540583 -0.00059230 -0.05430569
 18   H            X -0.00027851  0.00775285 -0.00045916 -0.00012027 -0.00063449
                   Y -0.00584310  0.51336389 -0.04329773 -0.00501518  0.09096035
                   Z  0.00545264 -0.46837249  0.03907231  0.00456907 -0.08878051
 19   H            X  0.00436359 -0.38943175  0.03747978  0.00367517  0.38983798
                   Y  0.00128177 -0.11337103  0.01070297  0.00106416  0.10640276
                   Z  0.00403505 -0.38590919  0.03815078  0.00370525  0.38921468
 20   H            X  0.00094312 -0.06477570  0.00528280  0.00060687 -0.16369501
                   Y -0.00386141  0.25910527 -0.02062494 -0.00249932  0.64756552
                   Z -0.00209628  0.14104034 -0.01135536 -0.00136415  0.33938608

 TRANS. SAYVETZ    X -0.00000003  0.00000007  0.00000019 -0.00000000  0.00000001
                   Y -0.00000003 -0.00000010  0.00000020  0.00000002 -0.00000012
                   Z  0.00000005 -0.00000013 -0.00000029  0.00000001 -0.00000005
               TOTAL  0.00000007  0.00000018  0.00000040  0.00000002  0.00000013

   ROT. SAYVETZ    X  0.00003592  0.00000189 -0.00009667 -0.00004567 -0.00008048
                   Y -0.00005663  0.00004047 -0.00002243 -0.00001741  0.00008818
                   Z -0.00001609 -0.00005671  0.00000223  0.00001506  0.00006565
               TOTAL  0.00006897  0.00006969  0.00009927  0.00005114  0.00013625

 REFERENCE ON SAYVETZ CONDITIONS - A. SAYVETZ, J.CHEM.PHYS., 7, 383-389(1939).

 NOTE - THE MODES J,K ARE ORTHONORMALIZED ACCORDING TO
 SUM ON I   M(I) * (X(I,J)*X(I,K) + Y(I,J)*Y(I,K) + Z(I,J)*Z(I,K)) = DELTA(J,K)

  MODE FREQ(CM**-1)  SYMMETRY  RED. MASS  IR INTENS.
     1      81.458    A        1.079634    0.006057
     2       0.044    A        4.807858    0.000004
     3       0.016    A        4.804541    0.000000
     4       0.004    A        4.805576    0.000000
     5       4.749    A        3.058878    0.042436
     6       5.026    A        3.067237    0.035801
     7       8.493    A        2.797041    0.073824
     8     139.346    A        1.670013    0.024841
     9     226.352    A        1.045755    0.015951
    10     242.741    A        2.531531    0.266458
    11     275.860    A        3.066946    0.285377
    12     295.718    A        3.051387    0.176690
    13     343.173    A        3.140975    0.861329
    14     366.193    A        2.739959    0.345169
    15     481.069    A        2.457127    0.583303
    16     665.796    A        3.988889    0.027810
    17     814.495    A        2.868152    0.022621
    18     894.172    A        1.327136    0.031582
    19     964.084    A        1.130348    0.523445
    20    1000.305    A        2.716255    0.084348
    21    1028.004    A        1.317131    0.203705
    22    1062.451    A        1.380998    0.003702
    23    1081.544    A        2.062328    0.021696
    24    1097.333    A        1.170741    0.210498
    25    1119.845    A        1.788061    0.008008
    26    1209.509    A        1.337017    0.273344
    27    1236.828    A        1.321415    0.245688
    28    1259.618    A        1.731530    0.005767
    29    1292.877    A        1.617592    0.166210
    30    1377.922    A        1.196804    0.197316
    31    1385.339    A        2.029037    0.230101
    32    1423.550    A        1.163397    6.122589
    33    1464.278    A        1.197889    0.276878
    34    1499.484    A        1.105931    0.002918
    35    1512.713    A        1.463555    0.063922
    36    1532.510    A        1.084299    0.281959
    37    1539.933    A        1.080118    0.232667
    38    1599.812    A        1.996536    0.176989
    39    1626.684    A        1.711659    0.041174
    40    1645.514    A        1.942220    0.001918
    41    1718.298    A        1.320569    0.027950
    42    1800.823    A        1.062762    0.068237
    43    1803.959    A        1.088218    0.047558
    44    1808.399    A        1.061717    0.091926
    45    1812.603    A        1.107031    0.000960
    46    1834.568    A        1.119313    0.011775
    47    1957.557    A        5.937481    0.333730
    48    3095.063    A        1.019746    0.138623
    49    3276.688    A        1.122209    0.236541
    50    3313.415    A        1.128849    0.717099
    51    3569.235    A        1.039476    0.003825
    52    3609.232    A        1.066761    0.014771
    53    3609.924    A        1.067009    0.028117
    54    3632.483    A        1.068873    0.024106
    55    3723.156    A        1.109892    0.002921
    56    3725.706    A        1.110435    0.000095
    57    3738.585    A        1.106893    0.005516
    58    3744.075    A        1.100398    0.402760
    59    3749.147    A        1.110882    0.009416
    60    3768.628    A        1.110261    0.011324

     -------------------------------
     THERMOCHEMISTRY AT T=  298.15 K
     -------------------------------

 USING IDEAL GAS, RIGID ROTOR, HARMONIC NORMAL MODE APPROXIMATIONS.
 P=  1.01325E+05 PASCAL.
 ALL FREQUENCIES ARE SCALED BY   1.00000
 THE MOMENTS OF INERTIA ARE (IN AMU*BOHR**2)
            491.93945           763.94701           926.73163
 THE ROTATIONAL SYMMETRY NUMBER IS  1.0
 THE ROTATIONAL CONSTANTS ARE (IN GHZ)
      3.66526     2.36023     1.94564
   1 IMAGINARY FREQUENCY VIBRATION(S) IS(ARE) EXCLUDED
     FROM THE FOLLOWING THERMOCHEMICAL ANALYSIS.
      8 -     60 VIBRATIONAL MODES ARE USED IN THERMOCHEMISTRY.
 THE HARMONIC ZERO POINT ENERGY IS (SCALED BY   1.000)
        0.211862 HARTREE/MOLECULE    46498.297643 CM**-1/MOLECULE 
      132.945438 KCAL/MOL              556.243711 KJ/MOL

               Q               LN Q
 ELEC.     1.00000E+00       0.000000
 TRANS.    3.70351E+07      17.427377
 ROT.      2.11254E+05      12.260819
 VIB.      1.51275E+01       2.716516
 TOT.      1.18355E+14      32.404711

              E         H         G         CV        CP        S
           KJ/MOL    KJ/MOL    KJ/MOL   J/MOL-K   J/MOL-K   J/MOL-K
 ELEC.      0.000     0.000     0.000     0.000     0.000     0.000
 TRANS.     3.718     6.197   -43.201    12.472    20.786   165.684
 ROT.       3.718     3.718   -30.394    12.472    12.472   114.413
 VIB.     567.008   567.008   549.510    80.936    80.936    58.690
 TOTAL    574.445   576.924   475.914   105.879   114.193   338.787
 VIB. THERMAL CORRECTION E(T)-E(0) = H(T)-H(0) =     10764.225 J/MOL

              E         H         G         CV        CP        S
         KCAL/MOL  KCAL/MOL  KCAL/MOL CAL/MOL-K CAL/MOL-K CAL/MOL-K
 ELEC.      0.000     0.000     0.000     0.000     0.000     0.000
 TRANS.     0.889     1.481   -10.325     2.981     4.968    39.600
 ROT.       0.889     0.889    -7.264     2.981     2.981    27.345
 VIB.     135.518   135.518   131.336    19.344    19.344    14.027
 TOTAL    137.296   137.888   113.746    25.306    27.293    80.972
 VIB. THERMAL CORRECTION E(T)-E(0) = H(T)-H(0) =      2572.712 CAL/MOL
 ......END OF NORMAL COORDINATE ANALYSIS......
 STEP CPU TIME =     0.01 TOTAL CPU TIME =         75.6 (      1.3 MIN)
 TOTAL WALL CLOCK TIME=         75.8 SECONDS, CPU UTILIZATION IS    99.74%
               580000  WORDS OF DYNAMIC MEMORY USED
 EXECUTION OF GAMESS TERMINATED NORMALLY Sun Nov 14 02:33:32 2021
 DDI: 263640 bytes (0.3 MB / 0 MWords) used by master data server.

 ----------------------------------------
 CPU timing information for all processes
 ========================================
 0: 74.506 + 1.55 = 75.561
 ----------------------------------------
 ddikick.x: exited gracefully.
----- accounting info -----
Files used on the master node chemcompute-node-0.novalocal were:
-rw-r--r--. 1 chemcomp chemcomp     1512 Nov 14 02:32 /scratch/306329/342239.F05
-rw-rw-r--. 1 chemcomp chemcomp  8100720 Nov 14 02:33 /scratch/306329/342239.F08
-rw-rw-r--. 1 chemcomp chemcomp 70451200 Nov 14 02:33 /scratch/306329/342239.F10
-rw-rw-r--. 1 chemcomp chemcomp   564960 Nov 14 02:33 /scratch/306329/342239.F18
Sun Nov 14 02:33:35 UTC 2021
0.169u 0.101s 1:20.12 0.3%	0+0k 8+216io 0pf+0w
Finishing Up...
Looking for IR data...
Looking for Raman data...
vibramans not found
Looking for thermodynamics data...
Looking for UV-Vis data...
306329
