----- GAMESS execution script 'rungms' -----
This job is running on host chemcompute-node-0.novalocal
under operating system Linux at Sun Nov 14 02:08:19 UTC 2021
SLURM has assigned the following compute nodes to this run:
chemcompute-node-0
Available scratch disk space (Kbyte units) at beginning of the job is
Filesystem     1K-blocks     Used Available Use% Mounted on
/dev/sda1       62903276 19167536  43735740  31% /
GAMESS temporary binary files will be written to /scratch/306322
GAMESS supplementary output files will be written to /data/slurm/342231
Copying input file 342231.inp to your run's scratch directory...
The generated host list is
chemcompute-node-0.novalocal

 Distributed Data Interface kickoff program.
 Initiating 1 compute processes on 1 nodes to run the following command:
 /data/gamess-2019R1-ddi/gamess.00.x 342231 

          ******************************************************
          *         GAMESS VERSION = 30 JUN 2019 (R1)          *
          *             FROM IOWA STATE UNIVERSITY             *
          * M.W.SCHMIDT, K.K.BALDRIDGE, J.A.BOATZ, S.T.ELBERT, *
          *   M.S.GORDON, J.H.JENSEN, S.KOSEKI, N.MATSUNAGA,   *
          *          K.A.NGUYEN, S.J.SU, T.L.WINDUS,           *
          *       TOGETHER WITH M.DUPUIS, J.A.MONTGOMERY       *
          *         J.COMPUT.CHEM.  14, 1347-1363(1993)        *
          **************** 64 BIT LINUX VERSION ****************

  SINCE 1993, STUDENTS AND POSTDOCS WORKING AT IOWA STATE UNIVERSITY
  AND ALSO IN THEIR VARIOUS JOBS AFTER LEAVING ISU HAVE MADE IMPORTANT
  CONTRIBUTIONS TO THE CODE:
     IVANA ADAMOVIC, CHRISTINE AIKENS, YURI ALEXEEV, POOJA ARORA,
     ANDREY ASADCHEV, ROB BELL, PRADIPTA BANDYOPADHYAY, JONATHAN BENTZ,
     COLLEEN BERTONI, BRETT BODE, KURT BRORSEN, CALEB CARLIN, GALINA CHABAN,
     WEI CHEN, CHEOL HO CHOI, PAUL DAY, ALBERT DEFUSCO, NUWAN DESILVA,
     TIM DUDLEY, DMITRI FEDOROV, ALEX FINDLATER, GRAHAM FLETCHER, 
     MARK FREITAG, KURT GLAESEMANN, ANASTASIA GUNINA,
     DAN KEMP, GRANT MERRILL, NORIYUKI MINEZAWA, JONATHAN MULLIN,
     TAKESHI NAGATA, SEAN NEDD, HEATHER NETZLOFF, BOSILJKA NJEGIC, RYAN OLSON,
     MIKE PAK, BUU PHAM,
     SPENCER PRUITT, LUKE ROSKOP, JIM SHOEMAKER, LYUDMILA SLIPCHENKO,
     TONY SMITH, SAROM SOK LEANG, JIE SONG, TETSUYA TAKETSUGU, SIMON WEBB,
     PENG XU, SOOHAENG YOO, FEDERICO ZAHARIEV

  ADDITIONAL CODE HAS BEEN PROVIDED BY COLLABORATORS IN OTHER GROUPS:
     IOWA STATE UNIVERSITY:
          JOE IVANIC, AARON WEST, LAIMUTIS BYTAUTAS, KLAUS RUEDENBERG
     UNIVERSITY OF TOKYO: KIMIHIKO HIRAO, TAKAHITO NAKAJIMA,
          TAKAO TSUNEDA, MUNEAKI KAMIYA, SUSUMU YANAGISAWA,
          KIYOSHI YAGI, MAHITO CHIBA, SEIKEN TOKURA, NAOAKI KAWAKAMI
     UNIVERSITY OF AARHUS: FRANK JENSEN
     UNIVERSITY OF IOWA: VISVALDAS KAIRYS, HUI LI
     NATIONAL INST. OF STANDARDS AND TECHNOLOGY: WALT STEVENS, DAVID GARMER
     UNIVERSITY OF PISA: BENEDETTA MENNUCCI, JACOPO TOMASI
     UNIVERSITY OF MEMPHIS: HENRY KURTZ, PRAKASHAN KORAMBATH
     UNIVERSITY OF ALBERTA: TOBY ZENG, MARIUSZ KLOBUKOWSKI
     UNIVERSITY OF NEW ENGLAND: MARK SPACKMAN
     MIE UNIVERSITY: HIROAKI UMEDA
     NAT. INST. OF ADVANCED INDUSTRIAL SCIENCE AND TECHNOLOGY: KAZUO KITAURA
     MICHIGAN STATE UNIVERSITY:
          KAROL KOWALSKI, MARTA WLOCH, JEFFREY GOUR, JESSE LUTZ,
          WEI LI, JUN SHEN, J. EMILIANO DEUSTUA, PIOTR PIECUCH
     UNIVERSITY OF MINNESOTA:
          YINAN SHU
     UNIVERSITY OF SILESIA: MONIKA MUSIAL, STANISLAW KUCHARSKI
     FACULTES UNIVERSITAIRES NOTRE-DAME DE LA PAIX:
          OLIVIER QUINET, BENOIT CHAMPAGNE
     UNIVERSITY OF CALIFORNIA - SANTA BARBARA: BERNARD KIRTMAN
     INSTITUTE FOR MOLECULAR SCIENCE:
          KAZUYA ISHIMURA, MICHIO KATOUDA, AND SHIGERU NAGASE
     UNIVERSITY OF NOTRE DAME: ANNA POMOGAEVA, DAN CHIPMAN
     KYUSHU UNIVERSITY:
          HARUYUKI NAKANO,
          FENG LONG GU, JACEK KORCHOWIEC, MARCIN MAKOWSKI, AND YURIKO AOKI,
          HIROTOSHI MORI AND EISAKU MIYOSHI
     PENNSYLVANIA STATE UNIVERSITY:
          TZVETELIN IORDANOV, CHET SWALINA, JONATHAN SKONE,
          SHARON HAMMES-SCHIFFER
     WASEDA UNIVERSITY:
          MASATO KOBAYASHI, TOMOKO AKAMA, TSUGUKI TOUMA,
          TAKESHI YOSHIKAWA, YASUHIRO IKABATA, JUNJI SEINO,
          YUYA NAKAJIMA, HIROMI NAKAI
     NANJING UNIVERSITY: SHUHUA LI
     UNIVERSITY OF NEBRASKA:
          PEIFENG SU, DEJUN SI, NANDUN THELLAMUREGE, YALI WANG, HUI LI
     UNIVERSITY OF ZURICH: ROBERTO PEVERATI, KIM BALDRIDGE
     N. COPERNICUS UNIVERSITY AND JACKSON STATE UNIVERSITY:
          MARIA BARYSZ
     UNIVERSITY OF COPENHAGEN: Jimmy Kromann, CASPER STEINMANN
     TOKYO INSTITUTE OF TECHNOLOGY: HIROYA NAKATA
     NAGOYA UNIVERSITY: YOSHIO NISHIMOTO, STEPHAN IRLE
     MOSCOW STATE UNIVERSITY: VLADIMIR MIRONOV
     A.N.NESMEYANOV INSTITUTE OF ORGANOELEMENT COMPOUNDS OF RUSSIAN ACADEMY OF SCIENCES:
          IGOR S. GERASIMOV

 EXECUTION OF GAMESS BEGUN Sun Nov 14 02:08:19 2021

            ECHO OF THE FIRST FEW INPUT CARDS -
 INPUT CARD>!File created by the GAMESS Input Deck Generator Plugin for Avogadro            
 INPUT CARD> $BASIS GBASIS=STO NGAUSS=3 $END                                                
 INPUT CARD> $CONTRL SCFTYP=RHF RUNTYP=OPTIMIZE NZVAR=1 mult=1  ICHARG=0 $END               
 INPUT CARD> $STATPT hssend=.t. OPTTOL=0.0005 NSTEP=50 $END                                 
 INPUT CARD> $STATPT HESS=calc ihrep=5 $END                                                 
 INPUT CARD> $FORCE nvib=2 $END                                                             
 INPUT CARD> $ZMAT DLC=.t. auto=.t. nonvdw(1)=2,12,3,13,17,2,2,3 $END                       
 INPUT CARD> $ZMAT IFZMAT(1)=1,2,12,1,3,13 fvalue(1)=2.00,2.00 $END                         
 INPUT CARD>                                                                                
 INPUT CARD> $DATA                                                                          
 INPUT CARD>Title                                                                           
 INPUT CARD>C1                                                                              
 INPUT CARD>C     6.0    -1.04587    -0.60507    -0.71568                                   
 INPUT CARD>C     6.0    -1.64305     0.51426     0.17771                                   
 INPUT CARD>C     6.0    -0.50044     1.15686     0.80586                                   
 INPUT CARD>C     6.0     0.76891     0.68868     0.15383                                   
 INPUT CARD>C     6.0     0.38406    -0.73986    -0.18366                                   
 INPUT CARD>H     1.0    -1.03826    -0.28924    -1.78114                                   
 INPUT CARD>H     1.0    -1.57250    -1.57985    -0.63801                                   
 INPUT CARD>H     1.0     1.66857     0.77235     0.79888                                   
 INPUT CARD>H     1.0     0.93020     1.24984    -0.79350                                   
 INPUT CARD>H     1.0     0.33897    -1.30405     0.77768                                   
 INPUT CARD>H     1.0     1.08076    -1.27196    -0.86507                                   
 INPUT CARD>B     5.0    -2.08258     1.98242    -0.86243                                   
 INPUT CARD>H     1.0    -0.97711     2.40150    -0.12092                                   
 INPUT CARD>H     1.0    -1.90209     1.91489    -2.03422                                   
 INPUT CARD>H     1.0    -3.07977     2.57552    -0.60886                                   
 INPUT CARD>H     1.0    -0.54468     1.65179     1.77864                                   
 INPUT CARD>C     6.0    -2.88679     0.23507     1.07946                                   
 INPUT CARD>H     1.0    -3.13480    -0.84605     1.05049                                   
 INPUT CARD>H     1.0    -3.79278     0.78816     0.75541                                   
 INPUT CARD>H     1.0    -2.67864     0.50513     2.13630                                   
 INPUT CARD> $END                                                                           
    1000000 WORDS OF MEMORY AVAILABLE

     BASIS OPTIONS
     -------------
     GBASIS=STO          IGAUSS=       3      POLAR=NONE    
     NDFUNC=       0     NFFUNC=       0     DIFFSP=       F
     NPFUNC=       0      DIFFS=       F     BASNAM=        


     RUN TITLE
     ---------
 Title                                                                           

 THE POINT GROUP OF THE MOLECULE IS C1      
 THE ORDER OF THE PRINCIPAL AXIS IS     0

 ATOM      ATOMIC                      COORDINATES (BOHR)
           CHARGE         X                   Y                   Z
 C           6.0    -1.9764077188       -1.1434165034       -1.3524390949
 C           6.0    -3.1049142841        0.9718104864        0.3358232053
 C           6.0    -0.9456944733        2.1861484062        1.5228545845
 C           6.0     1.4530292092        1.3014164932        0.2906965487
 C           6.0     0.7257681628       -1.3981326693       -0.3470670749
 H           1.0    -1.9620269040       -0.5465843447       -3.3658665458
 H           1.0    -2.9715941157       -2.9854836017       -1.2056640774
 H           1.0     3.1531400913        1.4595298666        1.5096642971
 H           1.0     1.7578231138        2.3618551285       -1.4994975713
 H           1.0     0.6405604181       -2.4642971743        1.4696021061
 H           1.0     2.0423402585       -2.4036558673       -1.6347452602
 B           5.0    -3.9355055475        3.7462305926       -1.6297563836
 H           1.0    -1.8464701599        4.5381769595       -0.2285056664
 H           1.0    -3.5944289040        3.6186173966       -3.8441183987
 H           1.0    -5.8199214052        4.8670270759       -1.1505785649
 H           1.0    -1.0292959510        3.1214304893        3.3611422308
 C           6.0    -5.4552420841        0.4442178879        2.0398836147
 H           1.0    -5.9239130263       -1.5988026719        1.9851382528
 H           1.0    -7.1673149317        1.4894064345        1.4275179084
 H           1.0    -5.0618956198        0.9545572882        4.0370216276

          INTERNUCLEAR DISTANCES (ANGS.)
          ------------------------------

                1 C          2 C          3 C          4 C          5 C     

   1 C       0.0000000    1.5516666 *  2.3910197 *  2.3923342 *  1.5316375 *
   2 C       1.5516666 *  0.0000000    1.4536385 *  2.4183762 *  2.4109293 *
   3 C       2.3910197 *  1.4536385 *  0.0000000    1.5018605 *  2.3149594 *
   4 C       2.3923342 *  2.4183762 *  1.5018605 *  0.0000000    1.5174767 *
   5 C       1.5316375 *  2.4109293 *  2.3149594 *  1.5174767 *  0.0000000  
   6 H       1.1113107 *  2.2019256 *  3.0121462    2.8224634 *  2.1858625 *
   7 H       1.1106610 *  2.2484824 *  3.2746992    3.3549128    2.1771872 *
   8 H       3.3999062    3.3792439    2.2028393 *  1.1101704 *  2.2140754 *
   9 H       2.7113834 *  2.8470937 *  2.1478660 *  1.1128114 *  2.1515296 *
  10 H       2.1532485 *  2.7558335 *  2.6002848 *  2.1319029 *  1.1155797 *
  11 H       2.2337446 *  3.4201042    3.3453501    2.2314831 *  1.1103337 *
  12 B       2.7913093 *  1.8521802 *  2.4429302 *  3.2920423    3.7357529  
  13 H       3.0656044    2.0234453 *  1.6233497 *  2.4612651 *  3.4241587  
  14 H       2.9701614 *  2.6308745 *  3.2565759    3.6640681    3.9621650  
  15 H       3.7768125    2.6328026 *  3.2660331    4.3536420    4.8135910  
  16 H       3.4009176    2.2501929 *  1.0923433 *  2.3006754 *  3.2300416  
  17 C       2.7050599 *  1.5614062 *  2.5727845 *  3.7982490    3.6392884  
  18 H       2.7460984 *  2.1994332 *  3.3183347    4.2893294    3.7305198  
  19 H       3.4133137    2.2427879 *  3.3133046    4.6022614    4.5456232  
  20 H       3.4687565    2.2155371 *  2.6342699 *  3.9811404    4.0388545  

                6 H          7 H          8 H          9 H         10 H     

   1 C       1.1113107 *  1.1106610 *  3.3999062    2.7113834 *  2.1532485 *
   2 C       2.2019256 *  2.2484824 *  3.3792439    2.8470937 *  2.7558335 *
   3 C       3.0121462    3.2746992    2.2028393 *  2.1478660 *  2.6002848 *
   4 C       2.8224634 *  3.3549128    1.1101704 *  1.1128114 *  2.1319029 *
   5 C       2.1858625 *  2.1771872 *  2.2140754 *  2.1515296 *  1.1155797 *
   6 H       0.0000000    1.8049467 *  3.8872105    2.6868262 *  3.0780126  
   7 H       1.8049467 *  0.0000000    4.2546483    3.7808504    2.3945691 *
   8 H       3.8872105    4.2546483    0.0000000    1.8190275 *  2.4657093 *
   9 H       2.6868262 *  3.7808504    1.8190275 *  0.0000000    3.0562254  
  10 H       3.0780126    2.3945691 *  2.4657093 *  3.0562254    0.0000000  
  11 H       2.5090175 *  2.6806979 *  2.7006395 *  2.5273041 *  1.8027506 *
  12 B       2.6636575 *  3.6055947    4.2773060    3.1013333    4.3994034  
  13 H       3.1623016    4.0586967    3.2403371    2.3273410 *  4.0336893  
  14 H       2.3808488 *  3.7777294    4.6990921    3.1628380    4.8260446  
  15 H       3.7079446    4.4203860    5.2706628    4.2274554    5.3536287  
  16 H       4.0845137    4.1641456    2.5752320 *  2.9921128 *  3.2434162  
  17 C       3.4460117    2.8232952 *  4.5955086    4.3711726    3.5868495  
  18 H       3.5670220    2.4145964 *  5.0749275    4.9312553    3.5144370  
  19 H       3.8964416    3.5325251    5.4615459    4.9918745    4.6313277  
  20 H       4.3206720    3.6424557    4.5561314    4.7076584    3.7715979  

               11 H         12 B         13 H         14 H         15 H     

   1 C       2.2337446 *  2.7913093 *  3.0656044    2.9701614 *  3.7768125  
   2 C       3.4201042    1.8521802 *  2.0234453 *  2.6308745 *  2.6328026 *
   3 C       3.3453501    2.4429302 *  1.6233497 *  3.2565759    3.2660331  
   4 C       2.2314831 *  3.2920423    2.4612651 *  3.6640681    4.3536420  
   5 C       1.1103337 *  3.7357529    3.4241587    3.9621650    4.8135910  
   6 H       2.5090175 *  2.6636575 *  3.1623016    2.3808488 *  3.7079446  
   7 H       2.6806979 *  3.6055947    4.0586967    3.7777294    4.4203860  
   8 H       2.7006395 *  4.2773060    3.2403371    4.6990921    5.2706628  
   9 H       2.5273041 *  3.1013333    2.3273410 *  3.1628380    4.2274554  
  10 H       1.8027506 *  4.3994034    4.0336893    4.8260446    5.3536287  
  11 H       0.0000000    4.5384707    4.2758504    4.5188847    5.6726322  
  12 B       4.5384707    0.0000000    1.3955390 *  1.1875305 *  1.1876250 *
  13 H       4.2758504    1.3955390 *  0.0000000    2.1801592 *  2.1655363 *
  14 H       4.5188847    1.1875305 *  2.1801592 *  0.0000000    1.9634188 *
  15 H       5.6726322    1.1876250 *  2.1655363 *  1.9634188 *  0.0000000  
  16 H       4.2637509    3.0740370    2.0874360 *  4.0558211    3.6027926  
  17 C       4.6683819    2.7332988 *  3.1274924    3.6723878    2.8922953 *
  18 H       4.6499157    3.5730481    4.0711680    4.3194675    3.8031056  
  19 H       5.5336644    2.6397817 *  3.3613714    3.5533456    2.3588708 *
  20 H       5.1282901    3.3955935    3.4038898    4.4703121    3.4616937  

               16 H         17 C         18 H         19 H         20 H     

   1 C       3.4009176    2.7050599 *  2.7460984 *  3.4133137    3.4687565  
   2 C       2.2501929 *  1.5614062 *  2.1994332 *  2.2427879 *  2.2155371 *
   3 C       1.0923433 *  2.5727845 *  3.3183347    3.3133046    2.6342699 *
   4 C       2.3006754 *  3.7982490    4.2893294    4.6022614    3.9811404  
   5 C       3.2300416    3.6392884    3.7305198    4.5456232    4.0388545  
   6 H       4.0845137    3.4460117    3.5670220    3.8964416    4.3206720  
   7 H       4.1641456    2.8232952 *  2.4145964 *  3.5325251    3.6424557  
   8 H       2.5752320 *  4.5955086    5.0749275    5.4615459    4.5561314  
   9 H       2.9921128 *  4.3711726    4.9312553    4.9918745    4.7076584  
  10 H       3.2434162    3.5868495    3.5144370    4.6313277    3.7715979  
  11 H       4.2637509    4.6683819    4.6499157    5.5336644    5.1282901  
  12 B       3.0740370    2.7332988 *  3.5730481    2.6397817 *  3.3955935  
  13 H       2.0874360 *  3.1274924    4.0711680    3.3613714    3.4038898  
  14 H       4.0558211    3.6723878    4.3194675    3.5533456    4.4703121  
  15 H       3.6027926    2.8922953 *  3.8031056    2.3588708 *  3.4616937  
  16 H       0.0000000    2.8251420 *  3.6712571    3.5132620    2.4487824 *
  17 C       2.8251420 *  0.0000000    1.1095804 *  1.1098355 *  1.1104817 *
  18 H       3.6712571    1.1095804 *  0.0000000    1.7862397 *  1.7924153 *
  19 H       3.5132620    1.1098355 *  1.7862397 *  0.0000000    1.7967390 *
  20 H       2.4487824 *  1.1104817 *  1.7924153 *  1.7967390 *  0.0000000  

  * ... LESS THAN  3.000


     ATOMIC BASIS SET
     ----------------
 THE CONTRACTED PRIMITIVE FUNCTIONS HAVE BEEN UNNORMALIZED
 THE CONTRACTED BASIS FUNCTIONS ARE NOW NORMALIZED TO UNITY

  SHELL TYPE  PRIMITIVE        EXPONENT          CONTRACTION COEFFICIENT(S)

 C         

      1   S       1            71.6168373    0.154328967295
      1   S       2            13.0450963    0.535328142282
      1   S       3             3.5305122    0.444634542185

      2   L       4             2.9412494   -0.099967229187    0.155916274999
      2   L       5             0.6834831    0.399512826089    0.607683718598
      2   L       6             0.2222899    0.700115468880    0.391957393099

 C         

      3   S       7            71.6168373    0.154328967295
      3   S       8            13.0450963    0.535328142282
      3   S       9             3.5305122    0.444634542185

      4   L      10             2.9412494   -0.099967229187    0.155916274999
      4   L      11             0.6834831    0.399512826089    0.607683718598
      4   L      12             0.2222899    0.700115468880    0.391957393099

 C         

      5   S      13            71.6168373    0.154328967295
      5   S      14            13.0450963    0.535328142282
      5   S      15             3.5305122    0.444634542185

      6   L      16             2.9412494   -0.099967229187    0.155916274999
      6   L      17             0.6834831    0.399512826089    0.607683718598
      6   L      18             0.2222899    0.700115468880    0.391957393099

 C         

      7   S      19            71.6168373    0.154328967295
      7   S      20            13.0450963    0.535328142282
      7   S      21             3.5305122    0.444634542185

      8   L      22             2.9412494   -0.099967229187    0.155916274999
      8   L      23             0.6834831    0.399512826089    0.607683718598
      8   L      24             0.2222899    0.700115468880    0.391957393099

 C         

      9   S      25            71.6168373    0.154328967295
      9   S      26            13.0450963    0.535328142282
      9   S      27             3.5305122    0.444634542185

     10   L      28             2.9412494   -0.099967229187    0.155916274999
     10   L      29             0.6834831    0.399512826089    0.607683718598
     10   L      30             0.2222899    0.700115468880    0.391957393099

 H         

     11   S      31             3.4252509    0.154328967295
     11   S      32             0.6239137    0.535328142282
     11   S      33             0.1688554    0.444634542185

 H         

     12   S      34             3.4252509    0.154328967295
     12   S      35             0.6239137    0.535328142282
     12   S      36             0.1688554    0.444634542185

 H         

     13   S      37             3.4252509    0.154328967295
     13   S      38             0.6239137    0.535328142282
     13   S      39             0.1688554    0.444634542185

 H         

     14   S      40             3.4252509    0.154328967295
     14   S      41             0.6239137    0.535328142282
     14   S      42             0.1688554    0.444634542185

 H         

     15   S      43             3.4252509    0.154328967295
     15   S      44             0.6239137    0.535328142282
     15   S      45             0.1688554    0.444634542185

 H         

     16   S      46             3.4252509    0.154328967295
     16   S      47             0.6239137    0.535328142282
     16   S      48             0.1688554    0.444634542185

 B         

     17   S      49            48.7911132    0.154328967295
     17   S      50             8.8873622    0.535328142282
     17   S      51             2.4052670    0.444634542185

     18   L      52             2.2369561   -0.099967229187    0.155916274999
     18   L      53             0.5198205    0.399512826089    0.607683718598
     18   L      54             0.1690618    0.700115468880    0.391957393099

 H         

     19   S      55             3.4252509    0.154328967295
     19   S      56             0.6239137    0.535328142282
     19   S      57             0.1688554    0.444634542185

 H         

     20   S      58             3.4252509    0.154328967295
     20   S      59             0.6239137    0.535328142282
     20   S      60             0.1688554    0.444634542185

 H         

     21   S      61             3.4252509    0.154328967295
     21   S      62             0.6239137    0.535328142282
     21   S      63             0.1688554    0.444634542185

 H         

     22   S      64             3.4252509    0.154328967295
     22   S      65             0.6239137    0.535328142282
     22   S      66             0.1688554    0.444634542185

 C         

     23   S      67            71.6168373    0.154328967295
     23   S      68            13.0450963    0.535328142282
     23   S      69             3.5305122    0.444634542185

     24   L      70             2.9412494   -0.099967229187    0.155916274999
     24   L      71             0.6834831    0.399512826089    0.607683718598
     24   L      72             0.2222899    0.700115468880    0.391957393099

 H         

     25   S      73             3.4252509    0.154328967295
     25   S      74             0.6239137    0.535328142282
     25   S      75             0.1688554    0.444634542185

 H         

     26   S      76             3.4252509    0.154328967295
     26   S      77             0.6239137    0.535328142282
     26   S      78             0.1688554    0.444634542185

 H         

     27   S      79             3.4252509    0.154328967295
     27   S      80             0.6239137    0.535328142282
     27   S      81             0.1688554    0.444634542185

 TOTAL NUMBER OF BASIS SET SHELLS             =   27
 NUMBER OF CARTESIAN GAUSSIAN BASIS FUNCTIONS =   48
 NUMBER OF ELECTRONS                          =   54
 CHARGE OF MOLECULE                           =    0
 SPIN MULTIPLICITY                            =    1
 NUMBER OF OCCUPIED ORBITALS (ALPHA)          =   27
 NUMBER OF OCCUPIED ORBITALS (BETA )          =   27
 TOTAL NUMBER OF ATOMS                        =   20
 THE NUCLEAR REPULSION ENERGY IS      305.9043749842

     $CONTRL OPTIONS
     ---------------
 SCFTYP=RHF          RUNTYP=OPTIMIZE     EXETYP=RUN     
 MPLEVL=       0     CITYP =NONE         CCTYP =NONE         VBTYP =NONE    
 DFTTYP=NONE         TDDFT =NONE    
 MULT  =       1     ICHARG=       0     NZVAR =       1     COORD =UNIQUE  
 PP    =NONE         RELWFN=NONE         LOCAL =NONE         NUMGRD=       F
 ISPHER=      -1     NOSYM =       0     MAXIT =      30     UNITS =ANGS    
 PLTORB=       F     MOLPLT=       F     AIMPAC=       F     FRIEND=        
 NPRINT=       7     IREST =       0     GEOM  =INPUT   
 NORMF =       0     NORMP =       0     ITOL  =      20     ICUT  =       9
 INTTYP=BEST         GRDTYP=BEST         QMTTOL= 1.0E-06

     $SYSTEM OPTIONS
     ---------------
  REPLICATED MEMORY=     1000000 WORDS (ON EVERY NODE).
 DISTRIBUTED MEMDDI=           0 MILLION WORDS IN AGGREGATE,
 MEMDDI DISTRIBUTED OVER   1 PROCESSORS IS           0 WORDS/PROCESSOR.
 TOTAL MEMORY REQUESTED ON EACH PROCESSOR=     1000000 WORDS.
 TIMLIM=      525600.00 MINUTES, OR     365.0 DAYS.
 PARALL= F  BALTYP=  DLB     KDIAG=    0  COREFL= F
 MXSEQ2=     300 MXSEQ3=     150  mem10=         0

          ----------------
          PROPERTIES INPUT
          ----------------

     MOMENTS            FIELD           POTENTIAL          DENSITY
 IEMOM =       1   IEFLD =       0   IEPOT =       0   IEDEN =       0
 WHERE =COMASS     WHERE =NUCLEI     WHERE =NUCLEI     WHERE =NUCLEI  
 OUTPUT=BOTH       OUTPUT=BOTH       OUTPUT=BOTH       OUTPUT=BOTH    
 IEMINT=       0   IEFINT=       0                     IEDINT=       0
                                                       MORB  =       0
          EXTRAPOLATION IN EFFECT
          SOSCF IN EFFECT
 ORBITAL PRINTING OPTION: NPREO=     1    48     2     1

     -------------------------------
     INTEGRAL TRANSFORMATION OPTIONS
     -------------------------------
     NWORD  =            0
     CUTOFF = 1.0E-09     MPTRAN =       0
     DIRTRF =       F     AOINTS =DUP     

          ----------------------
          INTEGRAL INPUT OPTIONS
          ----------------------
 NOPK  =       1 NORDER=       0 SCHWRZ=       T


 -----------------------------------------------
  STATISTICS ON AUTOMATIC COORDINATE GENERATION 
 -----------------------------------------------
  NUMBER OF USER SPECIFIED BONDS                             4
  NUMBER OF BONDS                                           23
  NUMBER OF ANGLES                                          59
  NUMBER OF TORSIONS                                        60
  NUMBER OF EXTRA COORD.                                     0
  NUMBER OF EXTRA COORD. FOR CONSTRAINTS                     0
  NUMBER OF CONSTRAINED COORD.                               2

  TOTAL NUMBER OF PRIMITIVES                               142
 -----------------------------------------------

   --- ENCODED Z MATRIX ---
 COORD  TYPE   I   J   K   L   M   N
    1      1    2  12
    2      1    3  13
    3      1    1   7
    4      1    1   6
    5      1    1   5
    6      1    1   2
    7      1    2  12
    8      1    2   3
    9      1    2  17
   10      1    2   3
   11      1    2  17
   12      1    3   4
   13      1    3  16
   14      1    4   5
   15      1    4   9
   16      1    4   8
   17      1    5  11
   18      1    5  10
   19      1   12  15
   20      1   12  14
   21      1   17  20
   22      1   17  19
   23      1   17  18
   24      2    1   5  11
   25      2    1   5   4
   26      2    1   5  10
   27      2    1   2  12
   28      2    1   2   3
   29      2    1   2  17
   30      2    1   2   3
   31      2    1   2  17
   32      2    1   2  12
   33      2    2   3   4
   34      2    2   1   6
   35      2    2   1   5
   36      2    2   1   7
   37      2    2   3  13
   38      2    2  17  20
   39      2    2  17  18
   40      2    2   3  16
   41      2    2  12  15
   42      2    2  17  19
   43      2    2  12  14
   44      2    2   3  13
   45      2    2  17  18
   46      2    2   3   4
   47      2    2  17  20
   48      2    2  12  15
   49      2    2  12  14
   50      2    2   3  16
   51      2    2  17  19
   52      2    3   2  17
   53      2    3   2  17
   54      2    3   2  12
   55      2    3   4   8
   56      2    3   4   9
   57      2    3   2  12
   58      2    3   2  17
   59      2    3   2  12
   60      2    3   2  17
   61      2    3   2  12
   62      2    3   4   5
   63      2    4   5  11
   64      2    4   3  16
   65      2    4   3  13
   66      2    4   5  10
   67      2    5   4   8
   68      2    5   4   9
   69      2    5   1   7
   70      2    5   1   6
   71      2    6   1   7
   72      2    8   4   9
   73      2   10   5  11
   74      2   12   2  17
   75      2   12   2  17
   76      2   12   2  17
   77      2   12   2  17
   78      2   13   3  16
   79      2   14  12  15
   80      2   18  17  19
   81      2   18  17  20
   82      2   19  17  20
   83      3    1   2  17  18
   84      3    1   2  17  19
   85      3    1   5   4   3
   86      3    1   2  17  20
   87      3    1   2   3  16
   88      3    1   2   3   4
   89      3    1   2   3  13
   90      3    1   5   4   8
   91      3    1   2  12  14
   92      3    1   2  12  15
   93      3    1   5   4   9
   94      3    2   3   4   8
   95      3    2   3   4   9
   96      3    2   1   5  11
   97      3    2   3   4   5
   98      3    2   1   5   4
   99      3    2   1   5  10
  100      3    3   2  12  14
  101      3    3   4   5  10
  102      3    3   4   5  11
  103      3    3   2  17  19
  104      3    3   2  12  15
  105      3    3   2  17  18
  106      3    3   2  17  20
  107      3    3   2   1   5
  108      3    3   2   1   6
  109      3    3   2   1   7
  110      3    4   3   2  17
  111      3    4   3   2  12
  112      3    4   5   1   6
  113      3    4   5   1   7
  114      3    5   1   2  12
  115      3    5   1   2  17
  116      3    5   4   3  16
  117      3    5   4   3  13
  118      3    6   1   2  12
  119      3    6   1   2  17
  120      3    6   1   5  10
  121      3    6   1   5  11
  122      3    7   1   2  12
  123      3    7   1   2  17
  124      3    7   1   5  10
  125      3    7   1   5  11
  126      3    8   4   5  10
  127      3    8   4   5  11
  128      3    8   4   3  16
  129      3    8   4   3  13
  130      3    9   4   5  10
  131      3    9   4   5  11
  132      3    9   4   3  16
  133      3    9   4   3  13
  134      3   12   2  17  19
  135      3   12   2   3  16
  136      3   12   2  17  18
  137      3   12   2  17  20
  138      3   12   2   3  13
  139      3   13   3   2  17
  140      3   14  12   2  17
  141      3   15  12   2  17
  142      3   16   3   2  17

          INDEP./SYM. INTERNAL COORDINATES
          --------------------------------
 CRD  1=   1.0000 (  1)
 CRD  2=   1.0000 (  2)
 CRD  3=  -0.1760 (  6) -0.1378 (  9) -0.1378 ( 11) -0.1681 ( 12)  0.2216 ( 25)
          -0.1695 ( 26)  0.1086 ( 28)  0.1086 ( 30) -0.2033 ( 35)  0.1024 ( 37)
          -0.1273 ( 38)  0.1024 ( 44) -0.1273 ( 47) -0.1347 ( 52) -0.1347 ( 53)
           0.1158 ( 56) -0.1347 ( 58) -0.1347 ( 60) -0.1714 ( 62)  0.1871 ( 70)
          -0.1036 ( 92)  0.1527 ( 94)  0.1357 ( 95)  0.1478 ( 97)  0.1286 (100)
          -0.1960 (110)  0.2057 (114)  0.2070 (115) -0.1035 (139)
 CRD  4=  -0.1311 (  5) -0.2810 (  6)  0.2504 (  8)  0.2504 ( 10)  0.3019 ( 12)
           0.2062 ( 35) -0.1216 ( 36)  0.1355 ( 37)  0.1165 ( 38)  0.1355 ( 44)
           0.1165 ( 47)  0.1214 ( 52)  0.1214 ( 53)  0.1496 ( 54)  0.1345 ( 55)
           0.1496 ( 57)  0.1214 ( 58)  0.1496 ( 59)  0.1214 ( 60)  0.1496 ( 61)
          -0.1383 ( 92)  0.1295 (103) -0.1547 (104)  0.1094 (114) -0.1002 (119)
           0.1248 (122) -0.1440 (136) -0.1090 (137)  0.1731 (140)
 CRD  5=   0.1967 (  5)  0.2127 (  6)  0.1440 (  8)  0.3614 (  9)  0.1440 ( 10)
           0.3614 ( 11)  0.1920 ( 12)  0.1390 ( 25)  0.1772 ( 41)  0.2247 ( 42)
           0.1772 ( 48)  0.2247 ( 51)  0.1091 ( 56) -0.1158 ( 63) -0.1008 ( 64)
          -0.1176 ( 79) -0.1426 ( 80) -0.1252 ( 81) -0.1404 ( 82)
 CRD  6=   0.1367 (  5) -0.1661 (  6) -0.2050 ( 12) -0.1024 ( 17)  0.2444 ( 25)
           0.1657 ( 33)  0.1023 ( 34) -0.1968 ( 35) -0.1006 ( 41) -0.1343 ( 42)
           0.1657 ( 46) -0.1006 ( 48) -0.1343 ( 51) -0.2429 ( 62) -0.1033 ( 63)
          -0.1002 ( 64) -0.1687 ( 65) -0.1599 ( 66)  0.1060 ( 67)  0.1361 ( 68)
           0.2238 ( 69)  0.1061 ( 73)  0.1433 ( 79)  0.1183 ( 88) -0.1179 (105)
          -0.1153 (107)  0.1886 (110)  0.1222 (111) -0.1266 (114) -0.2041 (115)
          -0.1263 (119)  0.1263 (142)
 CRD  7=  -0.1128 (  3)  0.2766 (  5) -0.3171 (  6) -0.1371 (  8) -0.1371 ( 10)
           0.2887 ( 12)  0.1208 ( 16)  0.1546 ( 24)  0.1180 ( 33) -0.1479 ( 36)
          -0.2569 ( 37) -0.2569 ( 44)  0.1180 ( 46)  0.1427 ( 56) -0.1465 ( 62)
           0.1824 ( 65)  0.1090 ( 66)  0.1003 ( 67) -0.1290 ( 93) -0.1178 ( 98)
           0.1105 (109) -0.1453 (112)  0.1933 (117)  0.1386 (129)  0.1061 (139)
 CRD  8=   0.1288 (  3)  0.1263 (  5)  0.1196 (  6) -0.1087 (  9) -0.1087 ( 11)
           0.3321 ( 12)  0.3206 ( 14)  0.1363 ( 16) -0.1373 ( 24) -0.1348 ( 40)
           0.1239 ( 41)  0.1239 ( 48) -0.1348 ( 50)  0.1503 ( 55) -0.1237 ( 62)
           0.1518 ( 63)  0.1154 ( 64) -0.1337 ( 66)  0.1742 ( 68) -0.1312 ( 79)
           0.1094 ( 87)  0.1446 ( 88)  0.2345 ( 89) -0.1308 (107) -0.1031 (108)
           0.1461 (112)  0.1142 (113)  0.1688 (138)  0.1621 (139)
 CRD  9=   0.4857 (  5) -0.1559 (  6) -0.2039 ( 12)  0.1322 ( 17)  0.1731 ( 24)
          -0.1873 ( 25)  0.1279 ( 26) -0.1924 ( 34) -0.1773 ( 56)  0.1258 ( 62)
          -0.1443 ( 65)  0.1166 ( 70) -0.1085 ( 73) -0.1496 ( 79) -0.1214 ( 89)
           0.1127 ( 96)  0.1164 ( 98) -0.1473 (101) -0.1202 (108)  0.1054 (113)
           0.1018 (125) -0.1198 (126)  0.1101 (131) -0.1511 (138) -0.1917 (139)
 CRD 10=   0.6327 ( 14)  0.1183 ( 16)  0.1305 ( 17) -0.1351 ( 26) -0.1073 ( 41)
          -0.1073 ( 48) -0.1229 ( 55)  0.1276 ( 63)  0.1749 ( 66)  0.2241 ( 67)
           0.1171 ( 79) -0.1094 ( 89) -0.1105 ( 90) -0.1026 ( 94)  0.1228 ( 99)
           0.1050 (116)  0.1097 (120)  0.1024 (124) -0.1139 (127) -0.1294 (129)
           0.1002 (130)  0.1164 (132)
 CRD 11=   0.1214 (  3)  0.1177 (  4)  0.2534 (  5)  0.2709 (  6)  0.1071 (  8)
          -0.1088 (  9)  0.1071 ( 10) -0.1088 ( 11)  0.1051 ( 13) -0.1300 ( 35)
           0.1023 ( 38) -0.1406 ( 39)  0.1845 ( 40)  0.1031 ( 41) -0.2519 ( 43)
          -0.1406 ( 45)  0.1023 ( 47)  0.1031 ( 48) -0.2519 ( 49)  0.1845 ( 50)
          -0.1348 ( 55)  0.1111 ( 62) -0.1266 ( 64)  0.2084 ( 65) -0.1002 ( 71)
          -0.1106 ( 78)  0.1605 ( 89)  0.1392 (102)  0.1876 (138)  0.1776 (139)
           0.1387 (140)
 CRD 12=   0.1540 (  5)  0.2697 ( 12)  0.1202 ( 13) -0.1384 ( 19) -0.1202 ( 20)
           0.1127 ( 28)  0.1127 ( 30) -0.1026 ( 33)  0.1832 ( 37) -0.1985 ( 40)
          -0.2325 ( 41)  0.1096 ( 42)  0.1832 ( 44) -0.1026 ( 46) -0.2325 ( 48)
          -0.1985 ( 50)  0.1096 ( 51)  0.2906 ( 64) -0.1062 ( 65) -0.1208 ( 67)
           0.2635 ( 79) -0.1119 ( 89)  0.1277 ( 94) -0.1099 (138)
 CRD 13=   0.1362 (  3) -0.1777 (  4) -0.1088 (  5) -0.1018 (  9) -0.1018 ( 11)
           0.1175 ( 12)  0.1087 ( 16) -0.1010 ( 18)  0.1252 ( 19)  0.1255 ( 25)
          -0.1693 ( 26) -0.1717 ( 34)  0.2078 ( 36)  0.1389 ( 38) -0.1416 ( 40)
           0.2253 ( 41) -0.1638 ( 42)  0.1389 ( 47)  0.2253 ( 48) -0.1416 ( 50)
          -0.1638 ( 51) -0.1643 ( 63) -0.1120 ( 69)  0.1089 ( 80) -0.1186 ( 85)
           0.1122 ( 92)  0.1719 ( 96)  0.1083 ( 97)  0.1799 ( 99)  0.1121 (104)
          -0.1015 (109) -0.1011 (113)  0.1150 (117) -0.1141 (122) -0.1064 (123)
          -0.1240 (138) -0.1041 (139)  0.1181 (141)
 CRD 14=   0.1724 (  3)  0.1223 (  8)  0.1223 ( 10)  0.1252 ( 13) -0.1727 ( 19)
           0.2086 ( 20) -0.1464 ( 34)  0.1056 ( 36)  0.1770 ( 39)  0.1154 ( 40)
          -0.1648 ( 41) -0.1574 ( 42)  0.3226 ( 43)  0.1770 ( 45) -0.1648 ( 48)
           0.3226 ( 49)  0.1154 ( 50) -0.1574 ( 51) -0.1305 ( 63)  0.1071 ( 65)
           0.1381 ( 70)  0.1019 ( 89) -0.1681 ( 91) -0.1035 ( 92)  0.1314 ( 96)
           0.1102 ( 99) -0.1060 (118) -0.1132 (119)  0.1287 (138)  0.1063 (139)
          -0.1203 (140)
 CRD 15=   0.1135 (  8)  0.1135 ( 10)  0.1335 ( 19) -0.2027 ( 20) -0.2667 ( 21)
           0.2223 ( 23) -0.3784 ( 38)  0.3051 ( 39)  0.1530 ( 41) -0.1638 ( 43)
           0.3051 ( 45) -0.3784 ( 47)  0.1530 ( 48) -0.1638 ( 49) -0.1552 ( 80)
           0.1885 ( 82)
 CRD 16=  -0.1441 (  3)  0.1372 (  4) -0.1510 ( 16)  0.1478 ( 21) -0.2881 ( 22)
           0.1533 ( 23) -0.1352 ( 36)  0.1152 ( 37)  0.1858 ( 38)  0.2242 ( 39)
          -0.1128 ( 40)  0.1108 ( 41) -0.3355 ( 42)  0.1152 ( 44)  0.2242 ( 45)
           0.1858 ( 47)  0.1108 ( 48) -0.1128 ( 50) -0.3355 ( 51)  0.1470 ( 64)
          -0.2115 ( 81) -0.1120 ( 96) -0.1147 ( 99) -0.1207 (117)
 CRD 17=   0.2194 (  4)  0.3678 ( 13) -0.2090 ( 15)  0.2267 ( 16) -0.1645 ( 17)
           0.1152 ( 18)  0.1083 ( 19) -0.2144 ( 24)  0.1737 ( 26) -0.1109 ( 37)
          -0.1109 ( 44) -0.1348 ( 68)  0.1232 ( 78) -0.1164 ( 87) -0.1887 ( 89)
           0.1839 ( 90)  0.1442 ( 93) -0.1007 ( 94) -0.1357 ( 95) -0.1444 (101)
          -0.1524 (102)  0.1947 (117) -0.1596 (138) -0.1618 (139)
 CRD 18=  -0.2156 ( 13) -0.4030 ( 15)  0.1687 ( 16) -0.1899 ( 18)  0.1002 ( 39)
           0.1002 ( 45) -0.1636 ( 56)  0.1411 ( 63) -0.1104 ( 64)  0.1806 ( 65)
          -0.1591 ( 66)  0.1112 ( 79)  0.1084 ( 84) -0.1376 ( 85) -0.1278 ( 88)
           0.1237 ( 92)  0.1414 ( 94)  0.1250 ( 95)  0.1627 ( 97) -0.1519 (101)
          -0.1577 (102)  0.1242 (104) -0.1257 (110) -0.1383 (111)  0.1125 (112)
           0.1249 (113)  0.1024 (117)  0.1299 (134)  0.1194 (136)  0.1210 (137)
           0.1303 (141)
 CRD 19=  -0.1251 (  4)  0.2049 ( 13) -0.1101 ( 15)  0.2677 ( 17) -0.4721 ( 18)
           0.1026 ( 19) -0.1200 ( 26) -0.1675 ( 36) -0.2097 ( 55)  0.1408 ( 56)
          -0.1159 ( 66)  0.1701 ( 67) -0.1808 ( 68)  0.1304 ( 69) -0.1292 ( 70)
          -0.2133 ( 90) -0.1846 ( 93) -0.1040 ( 95)  0.1733 (112)  0.2094 (113)
           0.1109 (117)
 CRD 20=   0.1265 (  4)  0.2245 ( 13)  0.1198 ( 15)  0.1286 ( 69)  0.2609 ( 83)
           0.2577 ( 84)  0.2609 ( 86)  0.1295 ( 91)  0.1732 ( 92)  0.1390 (100)
           0.2416 (103)  0.1827 (104)  0.2449 (105)  0.2449 (106)  0.1189 (122)
           0.2314 (134)  0.2347 (136)  0.2347 (137)  0.1211 (140)  0.1648 (141)
 CRD 21=  -0.1670 (  4)  0.2181 ( 13) -0.2579 ( 19)  0.3368 ( 20) -0.1110 ( 21)
          -0.1428 ( 83) -0.1174 ( 84) -0.1387 ( 86)  0.2806 ( 91)  0.2418 ( 92)
           0.3028 (100) -0.1219 (103)  0.2639 (104) -0.1473 (105) -0.1432 (106)
          -0.1252 (134) -0.1507 (136) -0.1465 (137)  0.2964 (140)  0.2576 (141)
 CRD 22=   0.2821 (  3) -0.2967 (  4)  0.1496 ( 19)  0.1353 ( 20)  0.1476 ( 21)
           0.1156 ( 23)  0.1006 ( 34)  0.1060 ( 55) -0.1316 ( 63)  0.1196 ( 66)
           0.2128 ( 69) -0.2460 ( 70)  0.1259 ( 96)  0.1250 ( 99)  0.2515 (108)
           0.2262 (109)  0.2279 (118)  0.2447 (119)  0.1307 (120)  0.1316 (121)
           0.2027 (122)  0.2194 (123)  0.1241 (124)  0.1250 (125)
 CRD 23=   0.1392 ( 19) -0.5090 ( 21) -0.5245 ( 22) -0.5087 ( 23)  0.1249 ( 38)
           0.1285 ( 39)  0.1322 ( 42)  0.1285 ( 45)  0.1249 ( 47)  0.1322 ( 51)
          -0.1377 ( 80) -0.1311 ( 81) -0.1412 ( 82)
 CRD 24=  -0.5750 ( 19) -0.5852 ( 20) -0.1006 ( 23)  0.1327 ( 41)  0.1361 ( 43)
           0.1327 ( 48)  0.1361 ( 49) -0.3135 ( 79)
 CRD 25=  -0.1327 (  3)  0.4486 ( 13)  0.1411 ( 15) -0.2544 ( 16)  0.1943 ( 17)
          -0.1026 ( 37) -0.1026 ( 44) -0.1098 ( 64) -0.1899 ( 67)  0.1964 ( 68)
           0.1850 ( 78)  0.1946 ( 94)  0.2114 ( 95)  0.1314 (117)  0.1260 (128)
           0.3077 (129)  0.1429 (132)  0.3245 (133)
 CRD 26=   0.1008 (  3) -0.5538 ( 15) -0.5416 ( 16)  0.1988 ( 17)  0.2848 ( 18)
           0.1442 ( 22) -0.1258 ( 23) -0.2094 ( 72) -0.1048 ( 94)  0.1140 (126)
          -0.1051 (129) -0.1437 (131)
 CRD 27=   0.1047 ( 15)  0.1313 ( 16) -0.1122 ( 17)  0.4699 ( 22) -0.5153 ( 23)
           0.1014 ( 39)  0.1014 ( 45) -0.3020 ( 81)  0.3093 ( 82)  0.1094 ( 84)
          -0.2168 ( 86)  0.1111 (103) -0.2151 (106)  0.1126 (134)  0.1010 (136)
          -0.2136 (137)
 CRD 28=  -0.3302 (  3) -0.3402 (  4)  0.1548 ( 16)  0.3052 ( 17)  0.2882 ( 18)
           0.3986 ( 21) -0.2055 ( 22) -0.2116 ( 23) -0.1308 ( 71)  0.1175 ( 73)
          -0.2302 ( 80)  0.1270 ( 81)  0.1115 ( 82)  0.1592 ( 84)  0.1439 (103)
          -0.1074 (105) -0.1195 (124)  0.1512 (134) -0.1001 (136)
 CRD 29=   0.2798 (  3)  0.2703 (  4) -0.1834 ( 16) -0.2665 ( 17) -0.2708 ( 18)
           0.4326 ( 21) -0.2283 ( 22) -0.1837 ( 23)  0.1144 ( 71) -0.1063 ( 73)
          -0.2833 ( 80)  0.1567 ( 81)  0.1181 ( 82) -0.1649 ( 83)  0.1262 ( 84)
           0.1369 (103) -0.1542 (105) -0.1157 (121)  0.1332 (134) -0.1579 (136)
 CRD 30=  -0.4320 (  3) -0.3979 (  4) -0.1514 ( 15) -0.2292 ( 16) -0.4509 ( 17)
          -0.2864 ( 18) -0.1796 ( 71) -0.1607 ( 73)  0.1394 (120) -0.1318 (125)
          -0.1417 (130)
 CRD 31=   0.3166 (  3) -0.3151 (  4)  0.2781 ( 15) -0.1670 ( 16) -0.1406 ( 24)
           0.1503 ( 26)  0.1394 ( 63) -0.1494 ( 66) -0.1236 ( 90) -0.1228 ( 93)
          -0.1079 ( 99) -0.1407 (101) -0.1293 (102) -0.1009 (112) -0.2116 (120)
          -0.1847 (121) -0.2004 (124) -0.1734 (125) -0.2302 (126) -0.2188 (127)
          -0.2294 (130) -0.2180 (131)
 CRD 32=   0.1419 (  3) -0.1456 (  4) -0.1513 ( 13)  0.2054 ( 17) -0.2933 ( 18)
           0.1494 ( 64) -0.1568 ( 78) -0.2356 ( 87)  0.1368 ( 90)  0.1338 ( 93)
           0.1043 (101) -0.1070 (112) -0.1388 (113)  0.1664 (116) -0.1473 (120)
          -0.1530 (121) -0.1790 (124) -0.1847 (125)  0.1437 (126)  0.1343 (127)
           0.1855 (128)  0.1407 (130)  0.1314 (131)  0.1905 (132) -0.2481 (135)
          -0.2507 (142)
 CRD 33=  -0.1092 (  4)  0.1394 ( 13) -0.2614 ( 15)  0.2370 ( 16)  0.1722 ( 17)
          -0.2177 ( 18) -0.1039 ( 64)  0.1372 ( 78)  0.1933 ( 87)  0.1238 ( 90)
          -0.1132 ( 96)  0.1175 (102) -0.1287 (112) -0.1402 (113) -0.2205 (116)
          -0.1255 (117) -0.1428 (120) -0.1570 (121) -0.1543 (124) -0.1685 (125)
           0.1459 (126)  0.1862 (127) -0.2159 (128) -0.1209 (129)  0.1135 (130)
           0.1538 (131) -0.2051 (132) -0.1100 (133)  0.2166 (135)  0.2142 (142)
 CRD 34=   0.1525 (  3) -0.1433 (  4)  0.1421 (  9)  0.1421 ( 11) -0.1728 ( 12)
           0.2301 ( 13) -0.1223 ( 15) -0.1470 ( 17)  0.1306 ( 18)  0.2518 ( 19)
          -0.2338 ( 20)  0.1038 ( 21)  0.1953 ( 22)  0.1030 ( 23)  0.1279 ( 38)
           0.1326 ( 39) -0.1325 ( 40)  0.1346 ( 42)  0.1326 ( 45)  0.1279 ( 47)
          -0.1325 ( 50)  0.1346 ( 51)  0.1544 ( 64)  0.1040 ( 65)  0.1219 ( 70)
           0.1088 ( 72) -0.1654 ( 80) -0.1664 ( 82)  0.1336 ( 89) -0.1148 ( 92)
           0.1364 (100) -0.1200 (108) -0.1213 (116) -0.1004 (128)  0.1220 (130)
          -0.1370 (132)  0.1080 (140)
 CRD 35=  -0.2246 (  6)  0.1051 (  8)  0.1051 ( 10)  0.3169 ( 13)  0.1914 ( 19)
          -0.1804 ( 20)  0.1383 ( 21) -0.1754 ( 23)  0.1067 ( 29)  0.1067 ( 31)
           0.1088 ( 37)  0.1049 ( 43)  0.1088 ( 44)  0.1049 ( 49)  0.1244 ( 71)
          -0.1863 ( 78)  0.1163 ( 80) -0.1367 ( 82) -0.1189 ( 84) -0.1135 ( 87)
           0.2317 ( 92)  0.1054 ( 95) -0.1135 (100) -0.1661 (103)  0.1965 (104)
           0.1281 (116) -0.1377 (120)  0.1064 (128) -0.1134 (129)  0.1847 (132)
          -0.1033 (135)  0.1425 (139) -0.1919 (140)  0.1181 (141)
 CRD 36=   0.1891 (  4) -0.1699 ( 13)  0.1282 ( 15) -0.1683 ( 16) -0.1552 ( 18)
           0.2264 ( 19)  0.1388 ( 20) -0.1208 ( 21)  0.1981 ( 22)  0.1235 ( 41)
           0.1443 ( 43)  0.1235 ( 48)  0.1443 ( 49)  0.1514 ( 69) -0.2078 ( 79)
           0.1642 ( 81)  0.1432 ( 86) -0.1245 ( 88)  0.1199 ( 94)  0.1258 ( 97)
          -0.1092 (102) -0.1363 (103) -0.2360 (105)  0.2263 (109)  0.1662 (122)
          -0.1208 (132)  0.1043 (135) -0.1419 (136)  0.1875 (142)
 CRD 37=   0.1098 (  4) -0.2014 (  6) -0.1447 ( 12)  0.1476 ( 15)  0.2970 ( 17)
          -0.1916 ( 18)  0.2451 ( 19) -0.3298 ( 20)  0.1075 ( 21)  0.1055 ( 26)
           0.1637 ( 36) -0.1450 ( 41) -0.1450 ( 48)  0.1526 ( 55)  0.1325 ( 90)
          -0.1070 ( 95)  0.1134 ( 96)  0.1726 ( 99)  0.1075 (100) -0.1678 (101)
           0.1153 (119)  0.1624 (120)  0.1032 (121) -0.1874 (130) -0.1275 (132)
 CRD 38=  -0.2089 (  3)  0.1035 (  4) -0.2095 (  5)  0.1305 (  6) -0.1202 (  8)
          -0.1202 ( 10)  0.1303 ( 14)  0.1488 ( 16)  0.1544 ( 19)  0.1728 ( 24)
           0.1474 ( 26) -0.1134 ( 34) -0.2314 ( 63) -0.1871 ( 66)  0.1239 ( 67)
           0.1247 ( 68) -0.1569 ( 72) -0.1105 ( 79)  0.1207 ( 91) -0.1449 ( 92)
           0.1589 ( 95)  0.2143 ( 96) -0.1183 ( 99)  0.1377 (100) -0.1279 (104)
          -0.1117 (112) -0.2621 (120) -0.1752 (124)  0.1573 (125) -0.1074 (126)
          -0.1184 (129) -0.1315 (130)  0.1677 (132)  0.1399 (133)  0.1534 (140)
          -0.1121 (141)
 CRD 39=  -0.1924 (  5) -0.2244 ( 12)  0.1920 ( 14) -0.1469 ( 15)  0.2167 ( 16)
           0.1327 ( 18)  0.1481 ( 20)  0.1539 ( 22)  0.1377 ( 24)  0.1471 ( 26)
           0.1069 ( 41)  0.1069 ( 48)  0.2544 ( 56) -0.1510 ( 67) -0.1884 ( 73)
          -0.1019 ( 82)  0.1007 ( 86) -0.1759 ( 93)  0.1486 ( 94)  0.2244 (102)
           0.2004 (127)  0.1833 (128)  0.1794 (129) -0.3135 (130)
 CRD 40=   0.1446 (  5) -0.2173 (  6)  0.1652 ( 13) -0.1548 ( 14) -0.1085 ( 15)
           0.1215 ( 19) -0.1918 ( 21)  0.2178 ( 34)  0.1595 ( 36) -0.1590 ( 40)
          -0.1590 ( 50) -0.1217 ( 55) -0.1350 ( 69) -0.1561 ( 70) -0.1105 ( 73)
           0.1041 ( 81)  0.1269 ( 82)  0.1643 ( 84) -0.1674 ( 90)  0.1014 ( 95)
          -0.1159 (104)  0.1422 (108)  0.1210 (112) -0.1753 (113)  0.1895 (120)
          -0.1305 (123) -0.1068 (124) -0.2072 (125) -0.1799 (126)  0.1111 (131)
 CRD 41=  -0.1552 (  6) -0.1515 (  9) -0.1515 ( 11)  0.1255 ( 13)  0.1042 ( 15)
           0.1186 ( 17) -0.1507 ( 18) -0.2800 ( 19)  0.3033 ( 20)  0.1776 ( 21)
           0.1125 ( 22)  0.1150 ( 27)  0.1150 ( 32)  0.1036 ( 36)  0.1321 ( 39)
           0.1449 ( 41) -0.1802 ( 43)  0.1321 ( 45)  0.1449 ( 48) -0.1802 ( 49)
          -0.1118 ( 56) -0.1890 ( 82) -0.1505 ( 92)  0.1090 ( 96) -0.1058 (101)
          -0.1042 (102) -0.1337 (104) -0.1422 (111)  0.1026 (121) -0.1090 (128)
          -0.1112 (129) -0.1125 (135)  0.1182 (137) -0.1422 (141)
 CRD 42=  -0.1036 (  3)  0.2748 (  8)  0.1511 (  9)  0.2748 ( 10)  0.1511 ( 11)
          -0.1550 ( 12)  0.2214 ( 14) -0.1132 ( 16) -0.1576 ( 19) -0.1027 ( 37)
          -0.2229 ( 40) -0.1027 ( 44) -0.2229 ( 50) -0.1215 ( 63)  0.1916 ( 64)
           0.1169 ( 72)  0.1388 ( 79) -0.1755 ( 91)  0.1099 ( 96) -0.1834 (100)
          -0.1004 (116)  0.1175 (117)  0.1210 (118) -0.1303 (120)  0.1218 (129)
           0.1185 (131) -0.1815 (132) -0.1415 (140)  0.1007 (141)
 CRD 43=   0.2693 (  9)  0.2693 ( 11) -0.2027 ( 12)  0.1539 ( 13)  0.1311 ( 20)
          -0.2614 ( 23) -0.1393 ( 38) -0.1476 ( 42) -0.1005 ( 43) -0.1393 ( 47)
          -0.1005 ( 49) -0.1476 ( 51) -0.1087 ( 79)  0.2075 ( 80)  0.1613 ( 81)
          -0.1294 ( 84)  0.1894 ( 91) -0.1512 ( 92)  0.1373 (100) -0.2033 (104)
           0.1127 (106)  0.1231 (124)  0.1127 (128)  0.1021 (136)  0.1704 (137)
           0.1364 (140) -0.2042 (141)
 CRD 44=   0.1014 (  4) -0.1248 (  5) -0.1744 (  8) -0.1744 ( 10) -0.1236 ( 12)
           0.1510 ( 13) -0.1490 ( 14)  0.1279 ( 16)  0.1276 ( 17) -0.1066 ( 19)
          -0.1987 ( 21)  0.1697 ( 22) -0.1122 ( 42) -0.1122 ( 51)  0.1027 ( 54)
           0.1027 ( 57)  0.1027 ( 59)  0.1027 ( 61) -0.1145 ( 71) -0.1323 ( 72)
           0.1301 ( 79) -0.1229 ( 80)  0.1412 ( 81) -0.2295 ( 83) -0.1308 ( 91)
           0.1191 ( 99) -0.1519 (100)  0.1427 (103)  0.1550 (106)  0.1762 (122)
           0.2177 (123) -0.1042 (129) -0.1059 (130) -0.1239 (131)  0.1034 (132)
          -0.2080 (136) -0.1297 (140) -0.1278 (142)
 CRD 45=   0.1083 (  6) -0.2148 ( 12)  0.2000 ( 13) -0.2304 ( 22)  0.2849 ( 23)
           0.1157 ( 33) -0.1288 ( 39) -0.1101 ( 40)  0.1293 ( 42) -0.1288 ( 45)
           0.1157 ( 46) -0.1101 ( 50)  0.1293 ( 51)  0.1027 ( 69) -0.1800 ( 81)
           0.1880 ( 82)  0.1323 ( 84) -0.2141 ( 86) -0.1012 (100)  0.1026 (103)
          -0.2439 (106)  0.1052 (109) -0.1007 (112) -0.1361 (131)  0.1459 (134)
          -0.2006 (137)  0.1450 (139)
 CRD 46=  -0.2372 (  3)  0.2596 (  5) -0.1432 (  9) -0.1432 ( 11)  0.1550 ( 14)
          -0.1121 ( 15) -0.1277 ( 17) -0.1195 ( 21)  0.1751 ( 22) -0.1287 ( 26)
           0.1260 ( 38)  0.1260 ( 47) -0.1299 ( 67) -0.1556 ( 70)  0.1595 ( 71)
           0.1387 ( 72) -0.1593 ( 80) -0.1354 ( 83)  0.1147 ( 94) -0.1307 ( 95)
           0.1042 (101)  0.1147 (103)  0.1567 (108) -0.1002 (112)  0.1572 (118)
           0.2269 (119) -0.1455 (120) -0.1455 (121)  0.2017 (128)  0.1020 (130)
          -0.1520 (133) -0.1004 (136)
 CRD 47=  -0.2717 (  4)  0.2358 ( 15) -0.1098 ( 16) -0.1750 ( 21) -0.1020 ( 36)
           0.1436 ( 55) -0.1139 ( 69)  0.1796 ( 71) -0.1012 ( 72)  0.1733 ( 84)
          -0.1401 ( 88)  0.2035 ( 90)  0.1104 ( 97) -0.1024 (101)  0.1037 (103)
          -0.1569 (109)  0.2089 (113) -0.1665 (122) -0.1750 (123)  0.1727 (124)
           0.1755 (125)  0.1333 (126)  0.1885 (127) -0.1372 (128) -0.1478 (129)
           0.1428 (134)
 CRD 48=  -0.1748 (  3)  0.1862 (  6)  0.1135 (  8)  0.1135 ( 10) -0.3132 ( 14)
           0.1934 ( 17)  0.1065 ( 18)  0.1884 ( 25) -0.1212 ( 34) -0.1276 ( 35)
          -0.1176 ( 55)  0.1212 ( 66)  0.1391 ( 69)  0.1534 ( 71) -0.2321 ( 73)
          -0.1319 ( 96)  0.2242 ( 99)  0.1054 (102) -0.2125 (112) -0.3502 (121)
           0.2755 (124) -0.1643 (126)  0.1253 (131)  0.1372 (133)
 CRD 49=   0.2516 (  5)  0.1409 (  8)  0.1409 ( 10) -0.2298 ( 12) -0.1498 ( 14)
           0.2339 ( 16) -0.1369 ( 17) -0.1277 ( 25) -0.1263 ( 26)  0.2240 ( 62)
           0.1516 ( 63)  0.1572 ( 64) -0.2370 ( 72)  0.1161 ( 73) -0.2231 ( 93)
           0.1778 ( 95)  0.1979 (101) -0.1342 (116)  0.2742 (126) -0.1786 (128)
          -0.2869 (131)  0.2297 (133)
 CRD 50=  -0.1501 (  4)  0.1398 (  5)  0.1291 ( 12) -0.1373 ( 15)  0.1025 ( 17)
          -0.2245 ( 18) -0.1675 ( 24)  0.1076 ( 26) -0.1179 ( 35) -0.1132 ( 55)
          -0.1150 ( 63)  0.1438 ( 66)  0.1666 ( 68)  0.1020 ( 71)  0.2376 ( 85)
           0.1409 ( 93) -0.1608 ( 97) -0.2153 ( 98)  0.1050 (107) -0.1064 (109)
          -0.1651 (112)  0.1407 (114) -0.1344 (116) -0.1175 (117)  0.1158 (121)
          -0.1475 (123)  0.1524 (124)  0.2472 (125) -0.1399 (126) -0.2973 (127)
          -0.1760 (131)
 CRD 51=  -0.2098 (  6)  0.1559 (  8)  0.1407 (  9)  0.1559 ( 10)  0.1407 ( 11)
          -0.1107 ( 13) -0.1170 ( 21)  0.1076 ( 23)  0.1710 ( 29)  0.1710 ( 31)
          -0.1374 ( 33) -0.1085 ( 39) -0.1360 ( 43) -0.1085 ( 45) -0.1374 ( 46)
          -0.1360 ( 49) -0.2325 ( 52) -0.2325 ( 53) -0.2325 ( 58) -0.2325 ( 60)
          -0.1059 ( 83) -0.1144 ( 86)  0.1321 (100) -0.1180 (105) -0.1264 (106)
           0.1461 (110)  0.1272 (123)  0.1980 (134) -0.1330 (140) -0.2295 (141)
           0.1203 (142)
 CRD 52=  -0.1171 (  3) -0.1150 (  6) -0.2154 (  8)  0.2563 (  9) -0.2154 ( 10)
           0.2563 ( 11)  0.1312 ( 27)  0.1669 ( 28) -0.1600 ( 29)  0.1669 ( 30)
          -0.1600 ( 31)  0.1312 ( 32)  0.1219 ( 36)  0.1293 ( 40)  0.1293 ( 50)
          -0.1138 ( 70) -0.1272 ( 74) -0.1272 ( 75) -0.1272 ( 76) -0.1272 ( 77)
          -0.2352 ( 91)  0.1123 ( 98)  0.1262 (104) -0.1254 (107) -0.1115 (111)
          -0.1491 (115)  0.2246 (118) -0.1170 (121) -0.1189 (125) -0.1018 (135)
          -0.1075 (138)  0.1071 (141)
 CRD 53=  -0.1049 (  6)  0.1263 (  8)  0.1263 ( 10) -0.1049 ( 21)  0.2938 ( 27)
          -0.1635 ( 29) -0.1635 ( 31)  0.2938 ( 32)  0.1024 ( 38) -0.1042 ( 39)
           0.1297 ( 43) -0.1042 ( 45)  0.1024 ( 47)  0.1297 ( 49) -0.1296 ( 54)
          -0.1296 ( 57) -0.1296 ( 59) -0.1296 ( 61) -0.2168 ( 83) -0.1607 ( 86)
           0.1111 ( 87)  0.1045 ( 89) -0.1129 ( 96) -0.1037 ( 99) -0.1620 (110)
          -0.2337 (111) -0.1036 (116)  0.1059 (123)  0.1979 (134) -0.1529 (135)
           0.1097 (137) -0.1596 (138)
 CRD 54=  -0.1570 (  5) -0.3565 (  6) -0.1030 ( 27)  0.1180 ( 28) -0.1726 ( 29)
           0.1180 ( 30) -0.1726 ( 31) -0.1030 ( 32) -0.1133 ( 33) -0.1024 ( 39)
           0.1578 ( 41) -0.1074 ( 43) -0.1024 ( 45) -0.1133 ( 46)  0.1578 ( 48)
          -0.1074 ( 49) -0.1333 ( 54) -0.1333 ( 57) -0.1333 ( 59) -0.1333 ( 61)
           0.2324 ( 74)  0.2324 ( 75)  0.2324 ( 76)  0.2324 ( 77) -0.1462 ( 91)
           0.1817 (111) -0.1425 (114) -0.1184 (118)  0.1265 (135)  0.1544 (138)

 THE DETERMINANT OF THE G MATRIX IS 10**(   -12)


                     --------------------
                     INTERNAL COORDINATES
                     --------------------

                 - - ATOMS - -         COORDINATE      COORDINATE
 NO.   TYPE    I  J  K  L  M  N        (BOHR,RAD)       (ANG,DEG)
 ----------------------------------------------------------------
   1 STRETCH   2 12                     3.5001131       1.8521802
   2 STRETCH   3 13                     3.0676861       1.6233497
   3 STRETCH   1  7                     2.0988449       1.1106610
   4 STRETCH   1  6                     2.1000727       1.1113107
   5 STRETCH   1  5                     2.8943752       1.5316375
   6 STRETCH   1  2                     2.9322247       1.5516666
   7 STRETCH   2 12                     3.5001131       1.8521802
   8 STRETCH   2  3                     2.7469784       1.4536385
   9 STRETCH   2 17                     2.9506299       1.5614062
  10 STRETCH   2  3                     2.7469784       1.4536385
  11 STRETCH   2 17                     2.9506299       1.5614062
  12 STRETCH   3  4                     2.8381049       1.5018605
  13 STRETCH   3 16                     2.0642295       1.0923433
  14 STRETCH   4  5                     2.8676152       1.5174767
  15 STRETCH   4  9                     2.1029086       1.1128114
  16 STRETCH   4  8                     2.0979178       1.1101704
  17 STRETCH   5 11                     2.0982264       1.1103337
  18 STRETCH   5 10                     2.1081399       1.1155797
  19 STRETCH  12 15                     2.2442859       1.1876250
  20 STRETCH  12 14                     2.2441073       1.1875305
  21 STRETCH  17 20                     2.0985061       1.1104817
  22 STRETCH  17 19                     2.0972850       1.1098355
  23 STRETCH  17 18                     2.0968029       1.1095804
  24 BEND      1  5 11                  1.9985254     114.5070722
  25 BEND      1  5  4                  1.8040836     103.3663740
  26 BEND      1  5 10                  1.8818911     107.8244173
  27 BEND      1  2 12                  1.9175041     109.8648941
  28 BEND      1  2  3                  1.8391826     105.3773995
  29 BEND      1  2 17                  2.1060898     120.6700596
  30 BEND      1  2  3                  1.8391826     105.3773995
  31 BEND      1  2 17                  2.1060898     120.6700596
  32 BEND      1  2 12                  1.9175041     109.8648941
  33 BEND      2  3  4                  1.9165794     109.8119124
  34 BEND      2  1  6                  1.9279734     110.4647415
  35 BEND      2  1  5                  1.7954796     102.8734033
  36 BEND      2  1  7                  1.9936538     114.2279469
  37 BEND      2  3 13                  1.4317761      82.0347298
  38 BEND      2 17 20                  1.9356753     110.9060232
  39 BEND      2 17 18                  1.9147210     109.7054339
  40 BEND      2  3 16                  2.1570982     123.5926208
  41 BEND      2 12 15                  2.0659964     118.3728746
  42 BEND      2 17 19                  1.9741582     113.1109333
  43 BEND      2 12 14                  2.0634770     118.2285242
  44 BEND      2  3 13                  1.4317761      82.0347298
  45 BEND      2 17 18                  1.9147210     109.7054339
  46 BEND      2  3  4                  1.9165794     109.8119124
  47 BEND      2 17 20                  1.9356753     110.9060232
  48 BEND      2 12 15                  2.0659964     118.3728746
  49 BEND      2 12 14                  2.0634770     118.2285242
  50 BEND      2  3 16                  2.1570982     123.5926208
  51 BEND      2 17 19                  1.9741582     113.1109333
  52 BEND      3  2 17                  2.0438417     117.1035037
  53 BEND      3  2 17                  2.0438417     117.1035037
  54 BEND      3  2 12                  1.6496686      94.5190496
  55 BEND      3  4  8                  1.9923413     114.1527468
  56 BEND      3  4  9                  1.9122846     109.5658378
  57 BEND      3  2 12                  1.6496686      94.5190496
  58 BEND      3  2 17                  2.0438417     117.1035037
  59 BEND      3  2 12                  1.6496686      94.5190496
  60 BEND      3  2 17                  2.0438417     117.1035037
  61 BEND      3  2 12                  1.6496686      94.5190496
  62 BEND      3  4  5                  1.7473824     100.1176361
  63 BEND      4  5 11                  2.0136206     115.3719596
  64 BEND      4  3 16                  2.1677209     124.2012576
  65 BEND      4  3 13                  1.8124683     103.8467817
  66 BEND      4  5 10                  1.8699321     107.1392147
  67 BEND      5  4  8                  1.9885359     113.9347169
  68 BEND      5  4  9                  1.8987923     108.7927836
  69 BEND      5  1  7                  1.9189307     109.9466291
  70 BEND      5  1  6                  1.9301185     110.5876467
  71 BEND      6  1  7                  1.8962300     108.6459765
  72 BEND      8  4  9                  1.9168331     109.8264478
  73 BEND     10  5 11                  1.8879337     108.1706333
  74 BEND     12  2 17                  1.8515011     106.0831999
  75 BEND     12  2 17                  1.8515011     106.0831999
  76 BEND     12  2 17                  1.8515011     106.0831999
  77 BEND     12  2 17                  1.8515011     106.0831999
  78 BEND     13  3 16                  1.7204904      98.5768376
  79 BEND     14 12 15                  1.9462509     111.5119623
  80 BEND     18 17 19                  1.8707585     107.1865659
  81 BEND     18 17 20                  1.8793679     107.6798507
  82 BEND     19 17 20                  1.8856678     108.0408072
  83 TORSION   1  2 17 18               0.1205305       6.9058881
  84 TORSION   1  2 17 19              -1.9670645    -112.7044949
  85 TORSION   1  5  4  3               0.7415308      42.4865850
  86 TORSION   1  2 17 20               2.1944153     125.7307366
  87 TORSION   1  2  3 16              -2.6510450    -151.8936919
  88 TORSION   1  2  3  4               0.1946441      11.1522827
  89 TORSION   1  2  3 13               1.9733890     113.0668602
  90 TORSION   1  5  4  8               2.8755842     164.7588411
  91 TORSION   1  2 12 14               0.0256264       1.4682846
  92 TORSION   1  2 12 15               2.4642931     141.1935917
  93 TORSION   1  5  4  9              -1.2627755     -72.3517040
  94 TORSION   2  3  4  8              -2.7183481    -155.7498718
  95 TORSION   2  3  4  9               1.4070380      80.6173365
  96 TORSION   2  1  5 11              -2.8442568    -162.9639130
  97 TORSION   2  3  4  5              -0.5869911     -33.6321120
  98 TORSION   2  1  5  4              -0.6394860     -36.6398490
  99 TORSION   2  1  5 10               1.3369135      76.5995018
 100 TORSION   3  2 12 14               1.9130763     109.6111962
 101 TORSION   3  4  5 10              -1.2435362     -71.2493775
 102 TORSION   3  4  5 11               2.9366568     168.2580415
 103 TORSION   3  2 17 19               2.0379258     116.7645497
 104 TORSION   3  2 12 15              -1.9314424    -110.6634968
 105 TORSION   3  2 17 18              -2.1576645    -123.6250673
 106 TORSION   3  2 17 20              -0.0837796      -4.8002188
 107 TORSION   3  2  1  5               0.2770714      15.8750204
 108 TORSION   3  2  1  6              -1.7833477    -102.1782973
 109 TORSION   3  2  1  7               2.3560445     134.9914067
 110 TORSION   4  3  2 17               2.5911842     148.4639190
 111 TORSION   4  3  2 12              -1.7608249    -100.8878325
 112 TORSION   4  5  1  6               1.4194232      81.3269611
 113 TORSION   4  5  1  7              -2.7697722    -158.6962600
 114 TORSION   5  1  2 12               2.0352136     116.6091475
 115 TORSION   5  1  2 17              -2.0867255    -119.5605655
 116 TORSION   5  4  3 16               2.2565136     129.2887064
 117 TORSION   5  4  3 13              -2.0948460    -120.0258346
 118 TORSION   6  1  2 12              -0.0252055      -1.4441702
 119 TORSION   6  1  2 17               2.1360407     122.3861168
 120 TORSION   6  1  5 10              -2.8873626    -165.4336882
 121 TORSION   6  1  5 11              -0.7853476     -44.9971029
 122 TORSION   7  1  2 12              -2.1689986    -124.2744663
 123 TORSION   7  1  2 17              -0.0077524      -0.4441793
 124 TORSION   7  1  5 10              -0.7933727     -45.4569092
 125 TORSION   7  1  5 11               1.3086422      74.9796760
 126 TORSION   8  4  5 10               0.8905172      51.0228786
 127 TORSION   8  4  5 11              -1.2124750     -69.4697025
 128 TORSION   8  4  3 16               0.1251566       7.1709466
 129 TORSION   8  4  3 13               2.0569823     117.8564056
 130 TORSION   9  4  5 10               3.0353428     173.9123335
 131 TORSION   9  4  5 11               0.9323506      53.4197525
 132 TORSION   9  4  3 16              -2.0326426    -116.4618450
 133 TORSION   9  4  3 13              -0.1008170      -5.7763860
 134 TORSION  12  2 17 19               0.2250959      12.8970444
 135 TORSION  12  2  3 16               1.6766714      96.0661929
 136 TORSION  12  2 17 18               2.3126909     132.5074275
 137 TORSION  12  2 17 20              -1.8966096    -108.6677241
 138 TORSION  12  2  3 13               0.0179201       1.0267451
 139 TORSION  13  3  2 17              -1.9132562    -109.6215034
 140 TORSION  14 12  2 17              -2.2775329    -130.4930248
 141 TORSION  15 12  2 17               0.1611337       9.2322822
 142 TORSION  16  3  2 17              -0.2545049     -14.5820556

     ------------------------------------------
     THE POINT GROUP IS C1 , NAXIS= 0, ORDER= 1
     ------------------------------------------

     DIMENSIONS OF THE SYMMETRY SUBSPACES ARE
 A   =   48

 ..... DONE SETTING UP THE RUN .....
 STEP CPU TIME =     0.06 TOTAL CPU TIME =          0.1 (      0.0 MIN)
 TOTAL WALL CLOCK TIME=          0.1 SECONDS, CPU UTILIZATION IS    66.67%


          -----------------------------
          STATIONARY POINT LOCATION RUN
          -----------------------------


           ** GEOMETRY CONSTRAINTS ARE BEING APPLIED. **

          TRANSFORMING DISPLACEMENT FROM INTERNALS TO CARTESIANS
          THE ROOT MEAN SQUARE ERROR IN ITERATION   1 IS   0.00089811
          THE ROOT MEAN SQUARE ERROR IN ITERATION   2 IS   0.00000137
          THE ROOT MEAN SQUARE ERROR IN ITERATION   3 IS   0.00000000
 WARNING! THE RADIUS IN CARTESIANS IS    0.79835
 OBTAINING INITIAL HESSIAN, HESS=CALC    

     ---------------------------------
     HESSIAN MATRIX CONTROL PARAMETERS
     ---------------------------------
     METHOD=ANALYTIC   NVIB  =       2   VIBSIZ= 0.01000
     RDHESS=       F   PURIFY=       F   PRTIFC=       F
     VIBANL=       F   DECOMP=       F   PROJCT=       F
     SCLFAC= 1.00000   PRTSCN=       F   NPRT  =       0
     PULCOR=       F   NPUN  =       0   REDOVB=       T
     HSSTYP=GENERAL 
 Old integral subroutine is used

     ------------------------------
     CPHF RESPONSE SOLUTION OPTIONS
     ------------------------------
     POLAR  =       F     NWORD  =       0
     CPHF   =AO      

          ********************
          1 ELECTRON INTEGRALS
          ********************
 ...... END OF ONE-ELECTRON INTEGRALS ......
 STEP CPU TIME =     0.05 TOTAL CPU TIME =          0.1 (      0.0 MIN)
 TOTAL WALL CLOCK TIME=          0.1 SECONDS, CPU UTILIZATION IS    84.62%

          -------------
          GUESS OPTIONS
          -------------
          GUESS =HUCKEL            NORB  =       0          NORDER=       0
          MIX   =       F          PRTMO =       F          PUNMO =       F
          TOLZ  = 1.0E-08          TOLE  = 1.0E-05
          SYMDEN=       F          PURIFY=       F

 INITIAL GUESS ORBITALS GENERATED BY HUCKEL   ROUTINE.
 HUCKEL GUESS REQUIRES     39252 WORDS.

 SYMMETRIES FOR INITIAL GUESS ORBITALS FOLLOW.   BOTH SET(S).
    27 ORBITALS ARE OCCUPIED (    7 CORE ORBITALS).
     8=A        9=A       10=A       11=A       12=A       13=A       14=A   
    15=A       16=A       17=A       18=A       19=A       20=A       21=A   
    22=A       23=A       24=A       25=A       26=A       27=A       28=A   
    29=A       30=A       31=A       32=A       33=A       34=A       35=A   
    36=A       37=A   
 ...... END OF INITIAL ORBITAL SELECTION ......
 STEP CPU TIME =     0.00 TOTAL CPU TIME =          0.1 (      0.0 MIN)
 TOTAL WALL CLOCK TIME=          0.1 SECONDS, CPU UTILIZATION IS    78.57%

                    ----------------------
                    AO INTEGRAL TECHNOLOGY
                    ----------------------
     S,P,L SHELL ROTATED AXIS INTEGRALS, REPROGRAMMED BY
        KAZUYA ISHIMURA (IMS) AND JOSE SIERRA (SYNSTAR).
     S,P,D,L SHELL ROTATED AXIS INTEGRALS PROGRAMMED BY
        KAZUYA ISHIMURA (INSTITUTE FOR MOLECULAR SCIENCE).
     S,P,D,F,G SHELL TO TOTAL QUARTET ANGULAR MOMENTUM SUM 5,
        ERIC PROGRAM BY GRAHAM FLETCHER (ELORET AND NASA ADVANCED
        SUPERCOMPUTING DIVISION, AMES RESEARCH CENTER).
     S,P,D,F,G,L SHELL GENERAL RYS QUADRATURE PROGRAMMED BY
        MICHEL DUPUIS (PACIFIC NORTHWEST NATIONAL LABORATORY).

          --------------------
          2 ELECTRON INTEGRALS
          --------------------

 THE -PK- OPTION IS OFF, THE INTEGRALS ARE NOT IN SUPERMATRIX FORM.
 STORING   15000 INTEGRALS/RECORD ON DISK, USING 12 BYTES/INTEGRAL.
 TWO ELECTRON INTEGRAL EVALUATION REQUIRES   89734 WORDS OF MEMORY.
 SCHWARZ INEQUALITY OVERHEAD:      1167 INTEGRALS, T=        0.01
 II,JST,KST,LST =  1  1  1  1 NREC =         1 INTLOC =    1
 II,JST,KST,LST =  2  1  1  1 NREC =         1 INTLOC =    2
 II,JST,KST,LST =  3  1  1  1 NREC =         1 INTLOC =   34
 II,JST,KST,LST =  4  1  1  1 NREC =         1 INTLOC =  139
 II,JST,KST,LST =  5  1  1  1 NREC =         1 INTLOC = 1356
 II,JST,KST,LST =  6  1  1  1 NREC =         1 INTLOC = 1942
 II,JST,KST,LST =  7  1  1  1 NREC =         1 INTLOC = 6828
 II,JST,KST,LST =  8  1  1  1 NREC =         1 INTLOC = 8535
 II,JST,KST,LST =  9  1  1  1 NREC =         2 INTLOC = 5990
 II,JST,KST,LST = 10  1  1  1 NREC =         2 INTLOC = 9879
 II,JST,KST,LST = 11  1  1  1 NREC =         4 INTLOC = 5348
 II,JST,KST,LST = 12  1  1  1 NREC =         4 INTLOC =13973
 II,JST,KST,LST = 13  1  1  1 NREC =         5 INTLOC = 8625
 II,JST,KST,LST = 14  1  1  1 NREC =         6 INTLOC = 4395
 II,JST,KST,LST = 15  1  1  1 NREC =         7 INTLOC = 1398
 II,JST,KST,LST = 16  1  1  1 NREC =         7 INTLOC =14707
 II,JST,KST,LST = 17  1  1  1 NREC =         8 INTLOC =14380
 II,JST,KST,LST = 18  1  1  1 NREC =         9 INTLOC =12384
 II,JST,KST,LST = 19  1  1  1 NREC =        15 INTLOC = 2574
 II,JST,KST,LST = 20  1  1  1 NREC =        16 INTLOC =12345
 II,JST,KST,LST = 21  1  1  1 NREC =        18 INTLOC = 9089
 II,JST,KST,LST = 22  1  1  1 NREC =        20 INTLOC = 7187
 II,JST,KST,LST = 23  1  1  1 NREC =        22 INTLOC = 8564
 II,JST,KST,LST = 24  1  1  1 NREC =        24 INTLOC = 5293
 II,JST,KST,LST = 25  1  1  1 NREC =        34 INTLOC =14451
 II,JST,KST,LST = 26  1  1  1 NREC =        38 INTLOC = 1347
 II,JST,KST,LST = 27  1  1  1 NREC =        41 INTLOC = 5607
 SCHWARZ INEQUALITY TEST SKIPPED        8131 INTEGRAL BLOCKS.
 TOTAL NUMBER OF NONZERO TWO-ELECTRON INTEGRALS =              659086
         44 INTEGRAL RECORDS WERE STORED ON DISK FILE  8.
  ...... END OF TWO-ELECTRON INTEGRALS .....
 STEP CPU TIME =     0.19 TOTAL CPU TIME =          0.3 (      0.0 MIN)
 TOTAL WALL CLOCK TIME=          0.3 SECONDS, CPU UTILIZATION IS    90.91%

          --------------------------
                 RHF SCF CALCULATION
          --------------------------

     NUCLEAR ENERGY =       302.4981041103
     MAXIT =   30     NPUNCH=    2
     EXTRAP=T  DAMP=F  SHIFT=F  RSTRCT=F  DIIS=F  DEM=F  SOSCF=T
     DENSITY MATRIX CONV=  1.00E-05
     SOSCF WILL OPTIMIZE     567 ORBITAL ROTATIONS, SOGTOL=   0.250
     MEMORY REQUIRED FOR RHF ITERS=     49068 WORDS.

 ITER EX DEM     TOTAL ENERGY        E CHANGE  DENSITY CHANGE     ORB. GRAD
   1  0  0     -255.8297984859  -255.8297984859   0.340012906   0.000000000
          ---------------START SECOND ORDER SCF---------------
   2  1  0     -256.2020545220    -0.3722560361   0.108104816   0.033469100
   3  2  0     -256.2218047329    -0.0197502109   0.048547136   0.013838638
   4  3  0     -256.2250746781    -0.0032699451   0.012707054   0.003367621
   5  4  0     -256.2253385036    -0.0002638255   0.003808263   0.001238995
   6  5  0     -256.2253823078    -0.0000438042   0.001853676   0.000361029
   7  6  0     -256.2253882656    -0.0000059578   0.000268302   0.000058934
   8  7  0     -256.2253884859    -0.0000002203   0.000082129   0.000025913
   9  8  0     -256.2253885155    -0.0000000296   0.000047322   0.000008299
  10  9  0     -256.2253885201    -0.0000000046   0.000020797   0.000003426
  11 10  0     -256.2253885209    -0.0000000008   0.000004385   0.000001383
  12 11  0     -256.2253885210    -0.0000000001   0.000001250   0.000000477

          -----------------
          DENSITY CONVERGED
          -----------------
     TIME TO FORM FOCK OPERATORS=       0.1 SECONDS (       0.0 SEC/ITER)
     TIME TO SOLVE SCF EQUATIONS=       0.0 SECONDS (       0.0 SEC/ITER)

 FINAL RHF ENERGY IS     -256.2253885210 AFTER  12 ITERATIONS

          ------------
          EIGENVECTORS
          ------------

                      1          2          3          4          5
                  -11.1628   -11.0970   -11.0710   -11.0540   -11.0479
                     A          A          A          A          A   
    1  C  1  S   -0.000290  -0.001172  -0.007313   0.991962   0.001614
    2  C  1  S    0.000145  -0.000017  -0.005967   0.036804   0.000215
    3  C  1  X   -0.000083  -0.000069  -0.003958   0.000481  -0.000104
    4  C  1  Y   -0.000070  -0.000324   0.000468   0.000113  -0.000015
    5  C  1  Z   -0.000017   0.000050  -0.001413   0.000180   0.000090
    6  C  2  S    0.000867  -0.000387  -0.000846  -0.005155  -0.007414
    7  C  2  S   -0.005934   0.000180   0.000124  -0.005706  -0.005634
    8  C  2  X   -0.003186   0.000010  -0.000070  -0.001566   0.003216
    9  C  2  Y   -0.001732  -0.000062   0.000047   0.003033   0.000782
   10  C  2  Z   -0.001923   0.000079  -0.000121   0.002390  -0.002434
   11  C  3  S    0.992513   0.001900   0.000800   0.000363   0.000218
   12  C  3  S    0.033811  -0.006131  -0.000091   0.000236   0.000199
   13  C  3  X   -0.000138  -0.003850   0.000034  -0.000062  -0.000068
   14  C  3  Y   -0.000873   0.001304   0.000376  -0.000015  -0.000065
   15  C  3  Z   -0.000418   0.001930   0.000069   0.000065   0.000013
   16  C  4  S   -0.000971   0.991911   0.004879   0.001316   0.000088
   17  C  4  S   -0.005640   0.037526  -0.005694   0.000039  -0.000047
   18  C  4  X    0.003365  -0.001146   0.000907   0.000273   0.000056
   19  C  4  Y   -0.001339  -0.000157   0.004129  -0.000017  -0.000002
   20  C  4  Z   -0.001908   0.000043   0.000986   0.000181   0.000024
   21  C  5  S   -0.000641  -0.003937   0.991927   0.008278  -0.000161
   22  C  5  S   -0.000035  -0.005990   0.037146  -0.005465   0.000001
   23  C  5  X    0.000389  -0.001221  -0.000361   0.003979  -0.000011
   24  C  5  Y   -0.000227  -0.004007   0.000499  -0.000274   0.000001
   25  C  5  Z   -0.000303  -0.000947   0.000571   0.001552   0.000024
   26  H  6  S    0.000007   0.000074   0.000076  -0.006736  -0.000015
   27  H  7  S   -0.000051  -0.000144   0.000151  -0.006712  -0.000025
   28  H  8  S    0.000066  -0.006669   0.000087  -0.000159  -0.000014
   29  H  9  S   -0.000079  -0.006749  -0.000024  -0.000020  -0.000005
   30  H 10  S   -0.000188   0.000033  -0.006792  -0.000027  -0.000001
   31  H 11  S   -0.000197   0.000151  -0.006646   0.000062   0.000008
   32  B 12  S    0.000021  -0.000004  -0.000000   0.000008   0.000017
   33  B 12  S    0.000279   0.000016  -0.000008   0.000031  -0.000002
   34  B 12  X   -0.000116   0.000021   0.000037  -0.000020   0.000098
   35  B 12  Y    0.000333  -0.000018   0.000015  -0.000020  -0.000045
   36  B 12  Z   -0.000196  -0.000001  -0.000015   0.000071  -0.000084
   37  H 13  S   -0.001863   0.000069  -0.000028   0.000006   0.000010
   38  H 14  S   -0.000072   0.000016  -0.000005   0.000120  -0.000042
   39  H 15  S   -0.000088   0.000001   0.000012  -0.000025   0.000125
   40  H 16  S   -0.006498   0.000072  -0.000041  -0.000082  -0.000007
   41  C 17  S   -0.000180  -0.000077   0.000157  -0.001652   0.992029
   42  C 17  S    0.000179  -0.000061   0.000013   0.000116   0.036797
   43  C 17  X   -0.000020  -0.000040   0.000047   0.000044  -0.000230
   44  C 17  Y    0.000002  -0.000034  -0.000020  -0.000093  -0.000258
   45  C 17  Z   -0.000018   0.000018   0.000021  -0.000072   0.000329
   46  H 18  S   -0.000027  -0.000002   0.000010  -0.000078  -0.006762
   47  H 19  S   -0.000016   0.000006   0.000009   0.000006  -0.006678
   48  H 20  S   -0.000203  -0.000016   0.000000   0.000000  -0.006757

                      6          7          8          9         10
                  -11.0245    -7.3129    -1.1311    -0.9775    -0.9485
                     A          A          A          A          A   
    1  C  1  S    0.006162   0.000024  -0.086250  -0.009341  -0.148600
    2  C  1  S   -0.005331   0.000185   0.222085   0.029856   0.425128
    3  C  1  X    0.001599   0.000042   0.031517  -0.073802   0.037729
    4  C  1  Y   -0.002885  -0.000128   0.030237   0.037347  -0.017953
    5  C  1  Z   -0.002522  -0.000092   0.039445   0.020337   0.013139
    6  C  2  S    0.992087   0.000591  -0.097646  -0.128493  -0.018140
    7  C  2  S    0.035215  -0.003715   0.248260   0.359696   0.052467
    8  C  2  X    0.002185   0.000929   0.067433  -0.017190  -0.030961
    9  C  2  Y   -0.000133  -0.002487  -0.003130   0.007442  -0.091922
   10  C  2  Z    0.001408   0.001915   0.013105   0.060785  -0.061303
   11  C  3  S   -0.000041   0.000076  -0.124988  -0.052256   0.127342
   12  C  3  S   -0.006769  -0.000092   0.336954   0.157437  -0.381453
   13  C  3  X    0.003668   0.000170   0.011652  -0.135099  -0.065774
   14  C  3  Y    0.002217  -0.000087  -0.061037  -0.015152  -0.010106
   15  C  3  Z    0.001826   0.000175  -0.051628   0.011096  -0.011422
   16  C  4  S    0.000453  -0.000004  -0.122117   0.099009   0.089033
   17  C  4  S    0.000201   0.000067   0.320472  -0.283415  -0.260299
   18  C  4  X    0.000024   0.000050  -0.071707  -0.012295   0.034527
   19  C  4  Y   -0.000011   0.000054  -0.027000   0.053909  -0.087786
   20  C  4  Z    0.000122  -0.000029   0.009838   0.018487  -0.058244
   21  C  5  S    0.000969  -0.000003  -0.103329   0.100046  -0.096066
   22  C  5  S    0.000123   0.000005   0.266385  -0.282902   0.277963
   23  C  5  X    0.000110   0.000024  -0.031161  -0.027997  -0.082568
   24  C  5  Y   -0.000151   0.000035   0.058476  -0.040429  -0.049385
   25  C  5  Z   -0.000177  -0.000020   0.012514  -0.013023  -0.040519
   26  H  6  S   -0.000011  -0.000654   0.038527   0.003258   0.105594
   27  H  7  S    0.000013  -0.000045   0.036111   0.010757   0.117582
   28  H  8  S   -0.000091  -0.000016   0.054645  -0.075752  -0.078907
   29  H  9  S    0.000012  -0.000193   0.059489  -0.069709  -0.064811
   30  H 10  S   -0.000092  -0.000018   0.053195  -0.068170   0.071787
   31  H 11  S   -0.000138   0.000005   0.042689  -0.072685   0.076643
   32  B 12  S    0.000449   0.990472  -0.009967  -0.017634   0.002721
   33  B 12  S   -0.003172   0.038638   0.018192   0.035726  -0.005186
   34  B 12  X   -0.000789   0.000428   0.004227   0.003061  -0.005987
   35  B 12  Y    0.002338   0.000601  -0.007113  -0.014061  -0.003391
   36  B 12  Z   -0.001676   0.000108   0.006170   0.011947  -0.005361
   37  H 13  S    0.000407  -0.006098   0.011144   0.014671  -0.017474
   38  H 14  S    0.000157  -0.006645   0.003615   0.006840   0.001438
   39  H 15  S    0.000147  -0.006634   0.002633   0.009610  -0.000583
   40  H 16  S    0.000091  -0.000002   0.060427   0.050769  -0.122626
   41  C 17  S    0.008416   0.000040  -0.030855  -0.132597  -0.023688
   42  C 17  S   -0.005029   0.000155   0.082182   0.373287   0.067946
   43  C 17  X   -0.003368  -0.000130   0.024342   0.043343   0.001231
   44  C 17  Y   -0.000629  -0.000189   0.003570   0.007374  -0.011352
   45  C 17  Z    0.002183   0.000124  -0.013220  -0.019927  -0.010962
   46  H 18  S   -0.000055  -0.000084   0.014734   0.090013   0.026086
   47  H 19  S   -0.000017  -0.000673   0.012468   0.084363   0.016360
   48  H 20  S    0.000001  -0.000038   0.016251   0.096340   0.010199

                     11         12         13         14         15
                   -0.8700    -0.7734    -0.7205    -0.6479    -0.6321
                     A          A          A          A          A   
    1  C  1  S    0.074344   0.083180   0.076833   0.004637  -0.000494
    2  C  1  S   -0.220757  -0.262651  -0.245625  -0.013371   0.004026
    3  C  1  X    0.028593   0.109624   0.006379   0.018909  -0.204165
    4  C  1  Y   -0.031502  -0.037285   0.164824   0.017210  -0.063623
    5  C  1  Z   -0.000104   0.065080   0.111809  -0.182816   0.089271
    6  C  2  S    0.045377   0.005216  -0.107781  -0.019231  -0.076688
    7  C  2  S   -0.133211  -0.020278   0.343645   0.071738   0.269003
    8  C  2  X   -0.152191   0.032760   0.058216  -0.088048  -0.125549
    9  C  2  Y   -0.018658   0.086724   0.045055   0.166734  -0.078815
   10  C  2  Z    0.057870   0.111897  -0.002321  -0.025447   0.025356
   11  C  3  S    0.076893  -0.062406   0.065162   0.007370   0.036943
   12  C  3  S   -0.239256   0.205709  -0.220224  -0.026092  -0.128579
   13  C  3  X    0.079135  -0.136625  -0.167277  -0.163366  -0.081475
   14  C  3  Y    0.012130   0.019182  -0.183489   0.179629   0.030802
   15  C  3  Z    0.007829   0.125530  -0.284204   0.069267   0.141787
   16  C  4  S   -0.076538   0.096614  -0.012656   0.000662  -0.021308
   17  C  4  S    0.233428  -0.308428   0.039529   0.002321   0.073634
   18  C  4  X    0.073762  -0.062801  -0.017213   0.167420   0.326421
   19  C  4  Y   -0.051454  -0.142456  -0.097421   0.068997  -0.028058
   20  C  4  Z   -0.022799   0.041503  -0.119854  -0.199804   0.196759
   21  C  5  S   -0.058088  -0.120563  -0.014565  -0.018133   0.011607
   22  C  5  S    0.174381   0.383097   0.046375   0.060767  -0.040105
   23  C  5  X    0.089951   0.055785   0.063198   0.166916   0.112837
   24  C  5  Y    0.024041  -0.125811   0.088521  -0.069664  -0.114262
   25  C  5  Z    0.028550   0.055966   0.048393  -0.228670   0.160416
   26  H  6  S   -0.069152  -0.129699  -0.122737   0.130755  -0.075007
   27  H  7  S   -0.057013  -0.098861  -0.179954  -0.034649   0.119530
   28  H  8  S    0.094163  -0.130584  -0.046177   0.021215   0.321633
   29  H  9  S    0.070344  -0.173549   0.046382   0.177322  -0.069910
   30  H 10  S    0.056749   0.198374   0.008731  -0.104090   0.140350
   31  H 11  S    0.066983   0.166769  -0.002722   0.226818   0.001321
   32  B 12  S    0.010795   0.003415  -0.031498  -0.101007  -0.009968
   33  B 12  S   -0.022805  -0.008532   0.073415   0.241227   0.026269
   34  B 12  X   -0.011713   0.000302   0.004657   0.011160  -0.018105
   35  B 12  Y    0.006948   0.008295  -0.021364  -0.002301  -0.015089
   36  B 12  Z   -0.004056   0.009671   0.010493   0.013318   0.005471
   37  H 13  S   -0.020144   0.006813   0.017607   0.131000  -0.018357
   38  H 14  S   -0.007961  -0.011047   0.025422   0.110406   0.005943
   39  H 15  S   -0.000342  -0.000649   0.023979   0.109406   0.014946
   40  H 16  S   -0.075098   0.153837  -0.310443   0.103831   0.041586
   41  C 17  S   -0.164170   0.009530   0.028960   0.010207   0.029931
   42  C 17  S    0.483235  -0.030196  -0.089144  -0.032301  -0.095937
   43  C 17  X   -0.044355   0.023895   0.076481   0.014013   0.165309
   44  C 17  Y   -0.014422   0.027269   0.032567   0.100609   0.001764
   45  C 17  Z    0.033648   0.022659  -0.069121  -0.039384  -0.145643
   46  H 18  S    0.153626  -0.032847  -0.066279  -0.088318  -0.056843
   47  H 19  S    0.149565  -0.016646  -0.046207   0.026862  -0.100977
   48  H 20  S    0.153555   0.015292  -0.067361  -0.015567  -0.118325

[...]
 19   H            X -0.00092772 -0.06214697 -0.00018309 -0.00081302 -0.00079234
                   Y  0.00132445 -0.09152629  0.00007415 -0.00003208 -0.00008225
                   Z  0.00020328  0.05006873 -0.00003166 -0.00197786 -0.00074005
 20   H            X  0.00871454  0.10399907  0.00053268 -0.00006537 -0.00026251
                   Y  0.00756418  0.06238165 -0.00036152  0.00197569  0.00248614
                   Z -0.01012635 -0.03410591 -0.00122315  0.00113129  0.00163903

 TRANS. SAYVETZ    X  0.00000015  0.00000005 -0.00000032 -0.00000020 -0.00000007
                   Y -0.00000003  0.00000074 -0.00000007  0.00000007  0.00000003
                   Z -0.00000007 -0.00000013  0.00000038  0.00000003 -0.00000005
               TOTAL  0.00000017  0.00000076  0.00000051  0.00000021  0.00000010

   ROT. SAYVETZ    X  0.00016177 -0.00932045 -0.01216151 -0.01382619 -0.00116148
                   Y  0.00083070  0.01174759  0.01560465  0.01770857  0.00195073
                   Z  0.00080529  0.01194201  0.01528120  0.01733476  0.00210715
               TOTAL  0.00116821  0.01916999  0.02499845  0.02837694  0.00309749

                           51          52          53          54          55
       FREQUENCY:      3569.84     3607.47     3610.25     3633.80     3727.64  
        SYMMETRY:         A           A           A           A           A   
    REDUCED MASS:      1.03944     1.06720     1.06723     1.06843     1.10997
    IR INTENSITY:      0.00957     0.02476     0.02107     0.01239     0.00136

  1   C            X  0.00034097 -0.02766665  0.00210978 -0.00459589 -0.03303343
                   Y  0.00054025 -0.06486909  0.00578406 -0.00726654  0.02036705
                   Z -0.00020173  0.00038313  0.00014224  0.00267107 -0.08191655
  2   C            X  0.00252396 -0.00047586  0.00038294 -0.00054405 -0.00000835
                   Y -0.00001188  0.00137090 -0.00029700  0.00007382  0.00058671
                   Z -0.00093511  0.00105060 -0.00021809  0.00027590  0.00064366
  3   C            X  0.00032166  0.00019624  0.00173666 -0.00005627 -0.00006742
                   Y  0.00024956  0.00025750  0.00170748 -0.00050173 -0.00013497
                   Z  0.00004272 -0.00000219  0.00129744 -0.00046918 -0.00033842
  4   C            X  0.00015676 -0.00547801 -0.06005147  0.00585206 -0.00118745
                   Y  0.00004439 -0.00135447 -0.01179001  0.00178361 -0.00626187
                   Z  0.00009753 -0.00345013 -0.03487517  0.00686647  0.00694978
  5   C            X  0.00005790 -0.00195668  0.00642864  0.04277052  0.00380074
                   Y -0.00007593  0.00499137 -0.00268627 -0.02765313 -0.00523301
                   Z -0.00006199  0.00339530 -0.00274508 -0.04899098  0.00431180
  6   H            X -0.00165795  0.28942720 -0.02304693  0.02141016  0.39658318
                   Y -0.00053277  0.12053489 -0.00990381  0.00737109  0.17515476
                   Z -0.00263583  0.46478609 -0.03820041  0.03393694  0.62884434
  7   H            X  0.00005688  0.01342623 -0.00162575 -0.00112893 -0.01216247
                   Y -0.00530533  0.60955209 -0.05300488  0.07024806 -0.42827597
                   Z  0.00409016 -0.47884539  0.04147696 -0.05422048  0.33155593
  8   H            X -0.00074087  0.03383619  0.36035775 -0.04277326 -0.02830412
                   Y  0.00065338 -0.02594808 -0.27102625  0.03435178  0.02073814
                   Z -0.00152836  0.05964438  0.63454328 -0.07301107 -0.04958409
  9   H            X -0.00099665  0.03088474  0.30931370 -0.02142516  0.04428493
                   Y -0.00126527  0.03986997  0.39339356 -0.02963333  0.05582086
                   Z  0.00086572 -0.02332108 -0.23623261  0.01774612 -0.03202502
 10   H            X -0.00085459  0.04607504 -0.05857608 -0.43418434 -0.03723808
                   Y  0.00111571 -0.05740682  0.06900071  0.52761235  0.04743198
                   Z -0.00018138  0.00752582 -0.00990254 -0.08326819 -0.00649486
 11   H            X -0.00002510  0.00607077 -0.00235178 -0.03586694 -0.00101517
                   Y -0.00034078  0.01848967 -0.01812804 -0.22316787  0.01303010
                   Z  0.00089856 -0.04712290  0.05979029  0.62139263 -0.03753644
 12   B            X -0.00019947 -0.00013474 -0.00015493 -0.00010759 -0.00005551
                   Y  0.00006555  0.00011546 -0.00044835  0.00001747 -0.00020324
                   Z -0.00012178 -0.00012898  0.00001067 -0.00016634 -0.00033837
 13   H            X  0.00158713  0.00135944  0.00488729  0.00000304  0.00107352
                   Y  0.00087866  0.00060870  0.00145193  0.00020617  0.00058013
                   Z  0.00047857  0.00038516  0.00094270 -0.00003316  0.00051511
 14   H            X -0.00003685  0.00020825 -0.00017481 -0.00088008  0.00021646
                   Y  0.00014025  0.00137891  0.00101557  0.00170426  0.00207925
                   Z  0.00045661  0.00091095  0.00082357  0.00186619  0.00251613
 15   H            X  0.00181887  0.00058877  0.00009734  0.00013496 -0.00048089
                   Y -0.00016575 -0.00054309  0.00011101 -0.00012793  0.00030646
                   Z -0.00121794 -0.00027473 -0.00003438  0.00002931  0.00057263
 16   H            X  0.00001108  0.00045028  0.00161150 -0.00179766 -0.00042496
                   Y -0.00286728  0.00174850 -0.02217960  0.01034988  0.00484008
                   Z -0.00264224  0.00232274 -0.02000619  0.00963667  0.00284684
 17   C            X -0.04528595 -0.00040932 -0.00009058  0.00007577  0.00107558
                   Y -0.01203653  0.00018120  0.00002728  0.00013633 -0.00135853
                   Z  0.02374262  0.00005868  0.00010511 -0.00003480  0.00153529
 18   H            X  0.02139418  0.00014978  0.00028079  0.00004025  0.00037159
                   Y  0.49653020  0.00236222  0.00120130 -0.00094800  0.01266279
                   Z -0.40061344 -0.00187805 -0.00100098  0.00071603 -0.01017765
 19   H            X  0.36931691  0.00337514  0.00010840 -0.00031553 -0.01062653
                   Y  0.07193617  0.00061885  0.00008621 -0.00008858 -0.00235255
                   Z  0.38799490  0.00345517  0.00016356 -0.00044663 -0.01139788
 20   H            X  0.11101953  0.00176878  0.00000833 -0.00001352 -0.00136823
                   Y -0.42706379 -0.00499316 -0.00074222 -0.00005180  0.00536143
                   Z -0.25472963 -0.00327004 -0.00033913 -0.00004604  0.00342293

 TRANS. SAYVETZ    X -0.00000038 -0.00000004 -0.00000047  0.00000018 -0.00000001
                   Y -0.00000011 -0.00000080  0.00000025 -0.00000025 -0.00000014
                   Z  0.00000045  0.00000009 -0.00000039  0.00000022 -0.00000004
               TOTAL  0.00000060  0.00000080  0.00000066  0.00000038  0.00000014

   ROT. SAYVETZ    X -0.00002266 -0.00003192  0.00001504 -0.00002476 -0.00004286
                   Y  0.00004273  0.00002508  0.00007998  0.00000442  0.00003015
                   Z  0.00004544  0.00002482  0.00007848  0.00000146  0.00003021
               TOTAL  0.00006637  0.00004759  0.00011306  0.00002519  0.00006048

                           56          57          58          59          60
       FREQUENCY:      3732.34     3739.49     3740.55     3751.82     3768.40  
        SYMMETRY:         A           A           A           A           A   
    REDUCED MASS:      1.10996     1.10659     1.10166     1.11146     1.11002
    IR INTENSITY:      0.01025     0.03622     0.37057     0.00731     0.00777

  1   C            X  0.00333225  0.00116306  0.00118195 -0.00209790 -0.00034481
                   Y -0.00134339 -0.00054856  0.00044460  0.00255594 -0.00008768
                   Z  0.00770366  0.00276780  0.00155558 -0.00662087  0.00012844
  2   C            X -0.00066251  0.00088528  0.00464724  0.00040175 -0.00055200
                   Y -0.00102559  0.00117053  0.00373111  0.00016287 -0.00004375
                   Z -0.00043668  0.00050369  0.00156426 -0.00005153  0.00043164
  3   C            X -0.00023308  0.00182696  0.00534423  0.00014223  0.00024954
                   Y  0.01276855 -0.02014445 -0.05918928 -0.00219264  0.00063101
                   Z  0.01157825 -0.01842726 -0.05466887 -0.00204957  0.00031499
  4   C            X -0.01607969 -0.00273813 -0.00707584  0.00074902 -0.00000376
                   Y -0.06089360 -0.00490697 -0.01071423  0.00595648  0.00003300
                   Z  0.06238273  0.00542206  0.01200791 -0.00700997  0.00000514
  5   C            X -0.00445940 -0.00065233 -0.00060074 -0.03109408  0.00003765
                   Y  0.00861123  0.00092700  0.00023455  0.06092844  0.00000722
                   Z -0.00665741 -0.00021357  0.00163414 -0.06044753 -0.00000058
  6   H            X -0.03704222 -0.01337114 -0.00938847  0.03085289  0.00055633
                   Y -0.01672641 -0.00605744 -0.00390363  0.01270208  0.00033970
                   Z -0.06041173 -0.02106800 -0.01363521  0.04722750  0.00105744
  7   H            X  0.00082602  0.00029257 -0.00018827 -0.00508388 -0.00003245
                   Y  0.03605462  0.01458179  0.00272316 -0.04866718  0.00106206
                   Z -0.02780467 -0.01107610 -0.00212130  0.03693062 -0.00084502
  8   H            X -0.24666702 -0.01658167 -0.03481696  0.03467916  0.00008889
                   Y  0.18090450  0.01247638  0.02610768 -0.02128807 -0.00005863
                   Z -0.42828007 -0.03043952 -0.06399017  0.06013314  0.00008545
  9   H            X  0.42493801  0.03922620  0.09124393 -0.04063617  0.00013985
                   Y  0.53038186  0.04844294  0.11164019 -0.05243296  0.00008470
                   Z -0.31093170 -0.02866283 -0.06632083  0.02986440 -0.00003728
 10   H            X  0.05790870  0.00585866  0.00116739  0.40606313 -0.00046764
                   Y -0.06824136 -0.00703365 -0.00095925 -0.49112849  0.00045999
                   Z  0.01041200  0.00119299  0.00060455  0.07241430 -0.00005201
 11   H            X -0.00371048  0.00000780  0.00106013 -0.04174203  0.00007212
                   Y -0.02535346 -0.00111236  0.00496066 -0.22431112 -0.00003219
                   Z  0.06221581  0.00211607 -0.01647243  0.63969388  0.00013806
 12   B            X -0.00039668  0.00035947  0.00008716  0.00006236  0.00020470
                   Y -0.00022368 -0.00003236  0.00024503 -0.00013589 -0.00002932
                   Z -0.00016435  0.00025480  0.00096749 -0.00018295 -0.00006793
 13   H            X  0.00280973 -0.00026286  0.00204214  0.00013098 -0.00018657
                   Y  0.00136587  0.00117482  0.00323002  0.00021070  0.00016808
                   Z -0.00045382 -0.00033515  0.00026282  0.00025276 -0.00006842
 14   H            X -0.00023904  0.00029904  0.00167917 -0.00099185 -0.00012028
                   Y  0.00096636 -0.00060383 -0.00294098  0.00165716  0.00024094
                   Z -0.00009920  0.00091844  0.00152201  0.00167319  0.00050367
 15   H            X  0.00086070 -0.00198170  0.00113157 -0.00091103 -0.00200548
                   Y -0.00002345  0.00064373 -0.00017019  0.00042861  0.00067294
                   Z -0.00080737  0.00110497  0.00019612  0.00068569  0.00163988
 16   H            X  0.01924210 -0.03020968 -0.08881678 -0.00271679  0.00094527
                   Y -0.13820756  0.21752014  0.63738714  0.02191399 -0.00482006
                   Z -0.13073288  0.20364927  0.59903369  0.02033970 -0.00431419
 17   C            X -0.00067826  0.03520671 -0.01283477 -0.00033063 -0.01527829
                   Y  0.00125544 -0.05178804  0.01726261  0.00035768 -0.07186910
                   Z -0.00118582  0.05809461 -0.02026651 -0.00051701 -0.05454879
 18   H            X -0.00064451  0.02255866 -0.00767569 -0.00026582  0.00405740
                   Y -0.01177356  0.51081012 -0.17352328 -0.00399595  0.13611081
                   Z  0.00955431 -0.40802171  0.13827421  0.00320451 -0.11396770
 19   H            X  0.00846571 -0.38683935  0.13700451  0.00334450  0.35113408
                   Y  0.00188808 -0.08258265  0.02904192  0.00069934  0.06778258
                   Z  0.00844129 -0.40322976  0.14371716  0.00359788  0.36816824
 20   H            X  0.00120408 -0.04789652  0.01579049  0.00034800 -0.16719814
                   Y -0.00504913  0.18856449 -0.06199597 -0.00121476  0.64761503
                   Z -0.00308601  0.11778562 -0.03897782 -0.00080711  0.38746339

 TRANS. SAYVETZ    X -0.00000008  0.00000008  0.00000021 -0.00000004  0.00000001
                   Y  0.00000004 -0.00000005  0.00000003  0.00000000 -0.00000010
                   Z  0.00000002 -0.00000014 -0.00000016  0.00000003 -0.00000006
               TOTAL  0.00000009  0.00000017  0.00000027  0.00000005  0.00000012

   ROT. SAYVETZ    X  0.00051905 -0.00086900 -0.00258534 -0.00010753  0.00001215
                   Y  0.00006981 -0.00004541 -0.00006507 -0.00000032 -0.00001071
                   Z  0.00006859 -0.00004199 -0.00005557  0.00000064 -0.00000946
               TOTAL  0.00052820  0.00087120  0.00258675  0.00010753  0.00001876

 REFERENCE ON SAYVETZ CONDITIONS - A. SAYVETZ, J.CHEM.PHYS., 7, 383-389(1939).

 NOTE - THE MODES J,K ARE ORTHONORMALIZED ACCORDING TO
 SUM ON I   M(I) * (X(I,J)*X(I,K) + Y(I,J)*Y(I,K) + Z(I,J)*Z(I,K)) = DELTA(J,K)

  MODE FREQ(CM**-1)  SYMMETRY  RED. MASS  IR INTENS.
     1     121.577    A        1.409765    0.042045
     2      49.479    A        2.950215    0.107791
     3       2.967    A        3.141002    0.005633
     4       0.001    A        4.805520    0.000000
     5       0.004    A        4.805529    0.000000
     6       0.016    A        4.806483    0.000000
     7      70.984    A        1.825677    0.178598
     8     197.808    A        1.711760    0.246580
     9     219.714    A        1.397581    0.020865
    10     232.403    A        1.677361    0.358084
    11     300.455    A        3.363764    0.659116
    12     351.898    A        2.279578    0.051595
    13     365.471    A        2.530161    0.046801
    14     421.160    A        2.542551    0.070950
    15     546.221    A        3.244207    0.474637
    16     655.774    A        3.594695    0.025945
    17     761.132    A        2.130547    0.034498
    18     932.622    A        1.741024    0.265998
    19     962.770    A        1.158923    1.073965
    20    1000.533    A        2.004470    0.041195
    21    1036.399    A        1.495904    0.188920
    22    1060.358    A        1.454598    0.081991
    23    1085.935    A        1.973531    0.019422
    24    1117.962    A        1.769111    0.020489
    25    1151.083    A        1.201611    0.144164
    26    1208.370    A        1.313501    0.189493
    27    1242.318    A        1.604928    0.018506
    28    1252.812    A        1.250327    0.063685
    29    1301.777    A        1.619695    0.021701
    30    1371.798    A        1.292649    0.152724
    31    1385.588    A        1.837838    0.044374
    32    1439.598    A        1.146955    5.055768
    33    1468.320    A        1.219231    0.310969
    34    1486.314    A        1.278619    0.013822
    35    1500.862    A        1.409732    0.094565
    36    1532.927    A        1.102549    0.143307
    37    1542.864    A        1.080264    0.567508
    38    1614.667    A        1.848540    0.111134
    39    1628.102    A        1.691019    0.014229
    40    1640.969    A        1.928544    0.000357
    41    1720.584    A        1.311012    0.026185
    42    1801.691    A        1.064393    0.061953
    43    1803.919    A        1.092441    0.034534
    44    1809.089    A        1.098189    0.040476
    45    1811.443    A        1.087802    0.047538
    46    1829.392    A        1.126211    0.004928
    47    1918.641    A        5.203443    0.100300
    48    3102.630    A        1.021226    0.049081
    49    3276.111    A        1.117242    0.339978
    50    3315.212    A        1.130716    0.687677
    51    3569.841    A        1.039444    0.009568
    52    3607.472    A        1.067197    0.024760
    53    3610.248    A        1.067227    0.021073
    54    3633.795    A        1.068434    0.012386
    55    3727.642    A        1.109973    0.001361
    56    3732.341    A        1.109962    0.010251
    57    3739.488    A        1.106588    0.036222
    58    3740.555    A        1.101664    0.370571
    59    3751.825    A        1.111462    0.007315
    60    3768.400    A        1.110018    0.007770

     -------------------------------
     THERMOCHEMISTRY AT T=  298.15 K
     -------------------------------

 USING IDEAL GAS, RIGID ROTOR, HARMONIC NORMAL MODE APPROXIMATIONS.
 P=  1.01325E+05 PASCAL.
 ALL FREQUENCIES ARE SCALED BY   1.00000
 THE MOMENTS OF INERTIA ARE (IN AMU*BOHR**2)
            467.78275           756.39318           912.05261
 THE ROTATIONAL SYMMETRY NUMBER IS  1.0
 THE ROTATIONAL CONSTANTS ARE (IN GHZ)
      3.85454     2.38380     1.97696
   1 IMAGINARY FREQUENCY VIBRATION(S) IS(ARE) EXCLUDED
     FROM THE FOLLOWING THERMOCHEMICAL ANALYSIS.
      8 -     60 VIBRATIONAL MODES ARE USED IN THERMOCHEMISTRY.
 THE HARMONIC ZERO POINT ENERGY IS (SCALED BY   1.000)
        0.212524 HARTREE/MOLECULE    46643.650472 CM**-1/MOLECULE 
      133.361023 KCAL/MOL              557.982519 KJ/MOL

               Q               LN Q
 ELEC.     1.00000E+00       0.000000
 TRANS.    3.70351E+07      17.427377
 ROT.      2.03351E+05      12.222691
 VIB.      1.01868E+01       2.321092
 TOT.      7.67182E+13      31.971160

              E         H         G         CV        CP        S
           KJ/MOL    KJ/MOL    KJ/MOL   J/MOL-K   J/MOL-K   J/MOL-K
 ELEC.      0.000     0.000     0.000     0.000     0.000     0.000
 TRANS.     3.718     6.197   -43.201    12.472    20.786   165.684
 ROT.       3.718     3.718   -30.299    12.472    12.472   114.096
 VIB.     567.988   567.988   552.229    78.842    78.842    52.857
 TOTAL    575.425   577.904   478.728   103.785   112.099   332.637
 VIB. THERMAL CORRECTION E(T)-E(0) = H(T)-H(0) =     10005.450 J/MOL

              E         H         G         CV        CP        S
         KCAL/MOL  KCAL/MOL  KCAL/MOL CAL/MOL-K CAL/MOL-K CAL/MOL-K
 ELEC.      0.000     0.000     0.000     0.000     0.000     0.000
 TRANS.     0.889     1.481   -10.325     2.981     4.968    39.600
 ROT.       0.889     0.889    -7.242     2.981     2.981    27.270
 VIB.     135.752   135.752   131.986    18.844    18.844    12.633
 TOTAL    137.530   138.122   114.419    24.805    26.792    79.502
 VIB. THERMAL CORRECTION E(T)-E(0) = H(T)-H(0) =      2391.360 CAL/MOL

     *******************************************************
     * THIS IS NOT A STATIONARY POINT ON THE MOLECULAR PES *
     *     THE VIBRATIONAL ANALYSIS IS NOT VALID !!!       *
     *******************************************************
 ......END OF NORMAL COORDINATE ANALYSIS......
 STEP CPU TIME =     0.01 TOTAL CPU TIME =        178.8 (      3.0 MIN)
 TOTAL WALL CLOCK TIME=        180.3 SECONDS, CPU UTILIZATION IS    99.20%
               580000  WORDS OF DYNAMIC MEMORY USED
 EXECUTION OF GAMESS TERMINATED NORMALLY Sun Nov 14 02:11:19 2021
 DDI: 263640 bytes (0.3 MB / 0 MWords) used by master data server.

 ----------------------------------------
 CPU timing information for all processes
 ========================================
 0: 175.297 + 3.546 = 178.843
 ----------------------------------------
 ddikick.x: exited gracefully.
----- accounting info -----
Files used on the master node chemcompute-node-0.novalocal were:
-rw-r--r--. 1 chemcomp chemcomp     1359 Nov 14 02:08 /scratch/306322/342231.F05
-rw-rw-r--. 1 chemcomp chemcomp  8100720 Nov 14 02:11 /scratch/306322/342231.F08
-rw-rw-r--. 1 chemcomp chemcomp 85196800 Nov 14 02:11 /scratch/306322/342231.F10
-rw-rw-r--. 1 chemcomp chemcomp   564960 Nov 14 02:11 /scratch/306322/342231.F18
Sun Nov 14 02:11:23 UTC 2021
0.127u 0.084s 3:03.83 0.1%	0+0k 8+224io 0pf+0w
Finishing Up...
Looking for IR data...
Looking for Raman data...
vibramans not found
Looking for thermodynamics data...
Looking for UV-Vis data...
306322
