----- GAMESS execution script 'rungms' -----
This job is running on host chemcompute-node-0.novalocal
under operating system Linux at Mon Nov 15 06:00:36 UTC 2021
SLURM has assigned the following compute nodes to this run:
chemcompute-node-0
Available scratch disk space (Kbyte units) at beginning of the job is
Filesystem     1K-blocks     Used Available Use% Mounted on
/dev/sda1       62903276 16583236  46320040  27% /
GAMESS temporary binary files will be written to /scratch/306693
GAMESS supplementary output files will be written to /data/slurm/342707
Copying input file 342707.inp to your run's scratch directory...
The generated host list is
chemcompute-node-0.novalocal

 Distributed Data Interface kickoff program.
 Initiating 1 compute processes on 1 nodes to run the following command:
 /data/gamess-2019R1-ddi/gamess.00.x 342707 

          ******************************************************
          *         GAMESS VERSION = 30 JUN 2019 (R1)          *
          *             FROM IOWA STATE UNIVERSITY             *
          * M.W.SCHMIDT, K.K.BALDRIDGE, J.A.BOATZ, S.T.ELBERT, *
          *   M.S.GORDON, J.H.JENSEN, S.KOSEKI, N.MATSUNAGA,   *
          *          K.A.NGUYEN, S.J.SU, T.L.WINDUS,           *
          *       TOGETHER WITH M.DUPUIS, J.A.MONTGOMERY       *
          *         J.COMPUT.CHEM.  14, 1347-1363(1993)        *
          **************** 64 BIT LINUX VERSION ****************

  SINCE 1993, STUDENTS AND POSTDOCS WORKING AT IOWA STATE UNIVERSITY
  AND ALSO IN THEIR VARIOUS JOBS AFTER LEAVING ISU HAVE MADE IMPORTANT
  CONTRIBUTIONS TO THE CODE:
     IVANA ADAMOVIC, CHRISTINE AIKENS, YURI ALEXEEV, POOJA ARORA,
     ANDREY ASADCHEV, ROB BELL, PRADIPTA BANDYOPADHYAY, JONATHAN BENTZ,
     COLLEEN BERTONI, BRETT BODE, KURT BRORSEN, CALEB CARLIN, GALINA CHABAN,
     WEI CHEN, CHEOL HO CHOI, PAUL DAY, ALBERT DEFUSCO, NUWAN DESILVA,
     TIM DUDLEY, DMITRI FEDOROV, ALEX FINDLATER, GRAHAM FLETCHER, 
     MARK FREITAG, KURT GLAESEMANN, ANASTASIA GUNINA,
     DAN KEMP, GRANT MERRILL, NORIYUKI MINEZAWA, JONATHAN MULLIN,
     TAKESHI NAGATA, SEAN NEDD, HEATHER NETZLOFF, BOSILJKA NJEGIC, RYAN OLSON,
     MIKE PAK, BUU PHAM,
     SPENCER PRUITT, LUKE ROSKOP, JIM SHOEMAKER, LYUDMILA SLIPCHENKO,
     TONY SMITH, SAROM SOK LEANG, JIE SONG, TETSUYA TAKETSUGU, SIMON WEBB,
     PENG XU, SOOHAENG YOO, FEDERICO ZAHARIEV

  ADDITIONAL CODE HAS BEEN PROVIDED BY COLLABORATORS IN OTHER GROUPS:
     IOWA STATE UNIVERSITY:
          JOE IVANIC, AARON WEST, LAIMUTIS BYTAUTAS, KLAUS RUEDENBERG
     UNIVERSITY OF TOKYO: KIMIHIKO HIRAO, TAKAHITO NAKAJIMA,
          TAKAO TSUNEDA, MUNEAKI KAMIYA, SUSUMU YANAGISAWA,
          KIYOSHI YAGI, MAHITO CHIBA, SEIKEN TOKURA, NAOAKI KAWAKAMI
     UNIVERSITY OF AARHUS: FRANK JENSEN
     UNIVERSITY OF IOWA: VISVALDAS KAIRYS, HUI LI
     NATIONAL INST. OF STANDARDS AND TECHNOLOGY: WALT STEVENS, DAVID GARMER
     UNIVERSITY OF PISA: BENEDETTA MENNUCCI, JACOPO TOMASI
     UNIVERSITY OF MEMPHIS: HENRY KURTZ, PRAKASHAN KORAMBATH
     UNIVERSITY OF ALBERTA: TOBY ZENG, MARIUSZ KLOBUKOWSKI
     UNIVERSITY OF NEW ENGLAND: MARK SPACKMAN
     MIE UNIVERSITY: HIROAKI UMEDA
     NAT. INST. OF ADVANCED INDUSTRIAL SCIENCE AND TECHNOLOGY: KAZUO KITAURA
     MICHIGAN STATE UNIVERSITY:
          KAROL KOWALSKI, MARTA WLOCH, JEFFREY GOUR, JESSE LUTZ,
          WEI LI, JUN SHEN, J. EMILIANO DEUSTUA, PIOTR PIECUCH
     UNIVERSITY OF MINNESOTA:
          YINAN SHU
     UNIVERSITY OF SILESIA: MONIKA MUSIAL, STANISLAW KUCHARSKI
     FACULTES UNIVERSITAIRES NOTRE-DAME DE LA PAIX:
          OLIVIER QUINET, BENOIT CHAMPAGNE
     UNIVERSITY OF CALIFORNIA - SANTA BARBARA: BERNARD KIRTMAN
     INSTITUTE FOR MOLECULAR SCIENCE:
          KAZUYA ISHIMURA, MICHIO KATOUDA, AND SHIGERU NAGASE
     UNIVERSITY OF NOTRE DAME: ANNA POMOGAEVA, DAN CHIPMAN
     KYUSHU UNIVERSITY:
          HARUYUKI NAKANO,
          FENG LONG GU, JACEK KORCHOWIEC, MARCIN MAKOWSKI, AND YURIKO AOKI,
          HIROTOSHI MORI AND EISAKU MIYOSHI
     PENNSYLVANIA STATE UNIVERSITY:
          TZVETELIN IORDANOV, CHET SWALINA, JONATHAN SKONE,
          SHARON HAMMES-SCHIFFER
     WASEDA UNIVERSITY:
          MASATO KOBAYASHI, TOMOKO AKAMA, TSUGUKI TOUMA,
          TAKESHI YOSHIKAWA, YASUHIRO IKABATA, JUNJI SEINO,
          YUYA NAKAJIMA, HIROMI NAKAI
     NANJING UNIVERSITY: SHUHUA LI
     UNIVERSITY OF NEBRASKA:
          PEIFENG SU, DEJUN SI, NANDUN THELLAMUREGE, YALI WANG, HUI LI
     UNIVERSITY OF ZURICH: ROBERTO PEVERATI, KIM BALDRIDGE
     N. COPERNICUS UNIVERSITY AND JACKSON STATE UNIVERSITY:
          MARIA BARYSZ
     UNIVERSITY OF COPENHAGEN: Jimmy Kromann, CASPER STEINMANN
     TOKYO INSTITUTE OF TECHNOLOGY: HIROYA NAKATA
     NAGOYA UNIVERSITY: YOSHIO NISHIMOTO, STEPHAN IRLE
     MOSCOW STATE UNIVERSITY: VLADIMIR MIRONOV
     A.N.NESMEYANOV INSTITUTE OF ORGANOELEMENT COMPOUNDS OF RUSSIAN ACADEMY OF SCIENCES:
          IGOR S. GERASIMOV

 EXECUTION OF GAMESS BEGUN Mon Nov 15 06:00:37 2021

            ECHO OF THE FIRST FEW INPUT CARDS -
 INPUT CARD>!File created by the GAMESS Input Deck Generator Plugin for Avogadro            
 INPUT CARD> $BASIS GBASIS=STO NGAUSS=3 $END                                                
 INPUT CARD> $CONTRL SCFTYP=RHF RUNTYP=SADPOINT NZVAR=1 mult=1  ICHARG=0 $END               
 INPUT CARD> $STATPT hssend=.t. OPTTOL=0.0005 NSTEP=50 $END                                 
 INPUT CARD> $STATPT HESS=calc ihrep=5 $END                                                 
 INPUT CARD> $FORCE nvib=2 $END                                                             
 INPUT CARD> $ZMAT DLC=.t. auto=.t. nonvdw(1)=1,7,4,6,1,4,6,7 $END                          
 INPUT CARD>!$ZMAT IFZMAT(1)=1,1,7,1,4,6,1,1,4 fvalue(1)=2.08,2.01,1.98 $END                
 INPUT CARD>                                                                                
 INPUT CARD> $DATA                                                                          
 INPUT CARD>Title                                                                           
 INPUT CARD>C1                                                                              
 INPUT CARD>B     5.0     0.49812788    -0.44820917     1.58743715                          
 INPUT CARD>H     1.0     1.09846938    -0.25740063     2.55279422                          
 INPUT CARD>H     1.0    -0.43682173    -1.09388816     1.39252031                          
 INPUT CARD>H     1.0     0.07367470     1.35941041     0.89986831                          
 INPUT CARD>C     6.0     0.42151028     0.46369544    -1.36254263                          
 INPUT CARD>C     6.0     1.38604939     0.28541350    -0.17916054                          
 INPUT CARD>C     6.0     1.89772558    -0.99164236     0.14792107                          
 INPUT CARD>C     6.0     3.34092951    -0.91024911     0.64960366                          
 INPUT CARD>C     6.0     3.80361605     0.49620420     0.18565594                          
 INPUT CARD>C     6.0     2.50452328     1.33568275     0.07932083                          
 INPUT CARD>H     1.0    -0.37641948    -0.27140149    -1.31931889                          
 INPUT CARD>H     1.0     0.97862661     0.31255519    -2.28604126                          
 INPUT CARD>H     1.0    -0.01439642     1.45707297    -1.37621152                          
 INPUT CARD>H     1.0     1.50148165    -1.88987041    -0.30242008                          
 INPUT CARD>H     1.0     3.94962239    -1.69814539     0.21081509                          
 INPUT CARD>H     1.0     3.41243458    -1.00725424     1.73169196                          
 INPUT CARD>H     1.0     4.26756430     0.41879979    -0.79499942                          
 INPUT CARD>H     1.0     4.52516317     0.94599861     0.86255646                          
 INPUT CARD>H     1.0     2.54289484     2.05819583    -0.73261476                          
 INPUT CARD>H     1.0     2.32324100     1.87988567     1.00146151                          
 INPUT CARD> $END                                                                           
    1000000 WORDS OF MEMORY AVAILABLE

     BASIS OPTIONS
     -------------
     GBASIS=STO          IGAUSS=       3      POLAR=NONE    
     NDFUNC=       0     NFFUNC=       0     DIFFSP=       F
     NPFUNC=       0      DIFFS=       F     BASNAM=        


     RUN TITLE
     ---------
 Title                                                                           

 THE POINT GROUP OF THE MOLECULE IS C1      
 THE ORDER OF THE PRINCIPAL AXIS IS     0

 ATOM      ATOMIC                      COORDINATES (BOHR)
           CHARGE         X                   Y                   Z
 B           5.0     0.9413252000       -0.8469925165        2.9998212362
 H           1.0     2.0758061341       -0.4864166598        4.8240815788
 H           1.0    -0.8254733752       -2.0671488836        2.6314818182
 H           1.0     0.1392249952        2.5689131798        1.7005045309
 C           6.0     0.7965389302        0.8762573234       -2.5748322173
 C           6.0     2.6192535525        0.5393533082       -0.3385643284
 C           6.0     3.5861813461       -1.8739323382        0.2795302901
 C           6.0     6.3134413182       -1.7201213985        1.2275729180
 C           6.0     7.1877920970        0.9376899720        0.3508388546
 C           6.0     4.7328627291        2.5240744040        0.1498946338
 H           1.0    -0.7113296736       -0.5128744488       -2.4931511925
 H           1.0     1.8493361372        0.5906436651       -4.3199915780
 H           1.0    -0.0272052890        2.7534686574       -2.6006626739
 H           1.0     2.8373888941       -3.5713372272       -0.5714910844
 H           1.0     7.4637040721       -3.2090294744        0.3983827542
 H           1.0     6.4485663072       -1.9034345136        3.2724232995
 H           1.0     8.0645271620        0.7914168468       -1.5023310642
 H           1.0     8.5513184410        1.7876781577        1.6299953583
 H           1.0     4.8053744632        3.8894261478       -1.3844411510
 H           1.0     4.3902888934        3.5524688045        1.8924878412

          INTERNUCLEAR DISTANCES (ANGS.)
          ------------------------------

                1 B          2 H          3 H          4 H          5 C     

   1 B       0.0000000    1.1527064 *  1.1528333 *  1.9800000 *  3.0886601  
   2 H       1.1527064 *  0.0000000    2.0983483 *  2.5291196 *  4.0383308  
   3 H       1.1528333 *  2.0983483 *  0.0000000    2.5538180 *  3.2792030  
   4 H       1.9800000 *  2.5291196 *  2.5538180 *  0.0000000    2.4580069 *
   5 C       3.0886601    4.0383308    3.2792030    2.4580069 *  0.0000000  
   6 C       2.1089036 *  2.8001654 *  2.7740787 *  2.0100000 *  1.5370469 *
   7 C       2.0800000 *  2.6384344 *  2.6475635 *  3.0692076    2.5649016 *
   8 C       3.0289493    3.0128015    3.8544848    3.9860934    3.8025603  
   9 C       3.7125677    3.6727486    4.6868143    3.8945714    3.7197601  
  10 C       3.0793356    3.2608240    4.0347017    2.5657135 *  2.6792303 *
  11 H       3.0406126    4.1435194    2.8344673 *  2.7905061 *  1.0857844 *
  12 H       3.9766162    4.8737604    4.1849005    3.4734513    1.0890692 *
  13 H       3.5603363    4.4288798    3.7883666    2.2798758 *  1.0848965 *
  14 H       2.5800516 *  3.3135517    2.6950753 *  3.7472598    2.7981190 *
  15 H       3.9204902    3.9610207    4.5828426    4.9846176    4.4268031  
  16 H       2.9709467 *  2.5672796 *  3.8651413    4.1761645    4.5479236  
  17 H       4.5427260    4.6591986    5.4041387    4.6201769    3.8879625  
  18 H       4.3227631    4.0059086    5.3910383    4.4707998    4.6929361  
  19 H       3.9806757    4.2710964    4.8301701    3.0414388    2.7275471 *
  20 H       3.0156974    2.9111323 *  4.0760525    2.3112257 *  3.3482369  

                6 C          7 C          8 C          9 C         10 C     

   1 B       2.1089036 *  2.0800000 *  3.0289493    3.7125677    3.0793356  
   2 H       2.8001654 *  2.6384344 *  3.0128015    3.6727486    3.2608240  
   3 H       2.7740787 *  2.6475635 *  3.8544848    4.6868143    4.0347017  
   4 H       2.0100000 *  3.0692076    3.9860934    3.8945714    2.5657135 *
   5 C       1.5370469 *  2.5649016 *  3.8025603    3.7197601    2.6792303 *
   6 C       0.0000000    1.4140957 *  2.4368044 *  2.4540074 *  1.5559119 *
   7 C       1.4140957 *  0.0000000    1.5300810 *  2.4181666 *  2.4061071 *
   8 C       2.4368044 *  1.5300810 *  0.0000000    1.5515918 *  2.4635356 *
   9 C       2.4540074 *  2.4181666 *  1.5515918 *  0.0000000    1.5503785 *
  10 C       1.5559119 *  2.4061071 *  2.4635356 *  1.5503785 *  0.0000000  
  11 H       2.1717045 *  2.8005849 *  4.2548168    4.5085324    3.5831193  
  12 H       2.1460840 *  2.9103001 *  3.9615321    3.7581351    2.9950106 *
  13 H       2.1833381 *  3.4605487    4.5789030    4.2355540    2.9117463 *
  14 H       2.1818290 *  1.0801065 *  2.2911952 *  3.3513271    3.3994135  
  15 H       3.2647348    2.1710326 *  1.0880363 *  2.1993456 *  3.3629920  
  16 H       3.0706000    2.1915559 *  1.0887782 *  2.1917202 *  3.0073222  
  17 H       2.9496063 *  2.9145466 *  2.1706914 *  1.0876233 *  2.1710421 *
  18 H       3.3727707    3.3419432    2.2121062 *  1.0868025 *  2.2018850 *
  19 H       2.1880037 *  3.2393054    3.3703193    2.2073642 *  1.0875371 *
  20 H       2.1942056 *  3.0257673    2.9907099 *  2.1844046 *  1.0859850 *

               11 H         12 H         13 H         14 H         15 H     

   1 B       3.0406126    3.9766162    3.5603363    2.5800516 *  3.9204902  
   2 H       4.1435194    4.8737604    4.4288798    3.3135517    3.9610207  
   3 H       2.8344673 *  4.1849005    3.7883666    2.6950753 *  4.5828426  
   4 H       2.7905061 *  3.4734513    2.2798758 *  3.7472598    4.9846176  
   5 C       1.0857844 *  1.0890692 *  1.0848965 *  2.7981190 *  4.4268031  
   6 C       2.1717045 *  2.1460840 *  2.1833381 *  2.1818290 *  3.2647348  
   7 C       2.8005849 *  2.9103001 *  3.4605487    1.0801065 *  2.1710326 *
   8 C       4.2548168    3.9615321    4.5789030    2.2911952 *  1.0880363 *
   9 C       4.5085324    3.7581351    4.2355540    3.3513271    2.1993456 *
  10 C       3.5831193    2.9950106 *  2.9117463 *  3.3994135    3.3629920  
  11 H       0.0000000    1.7640032 *  1.7668960 *  2.6795592 *  4.8053664  
  12 H       1.7640032 *  0.0000000    1.7674292 *  3.0097855    4.3708151  
  13 H       1.7668960 *  1.7674292 *  0.0000000    3.8279165    5.3091903  
  14 H       2.6795592 *  3.0097855    3.8279165    0.0000000    2.5086973 *
  15 H       4.8053664    4.3708151    5.3091903    2.5086973 *  0.0000000  
  16 H       4.9199148    4.8792928    5.2416737    2.9271768 *  1.7546988 *
  17 H       4.7241797    3.6127005    4.4442104    3.6364551    2.3652076 *
  18 H       5.5016503    4.7846463    5.0873255    4.3060392    2.7834352 *
  19 H       3.7806933    2.8119976 *  2.7046819 *  4.1057077    4.1205633  
  20 H       4.1595943    3.8822915    3.3610487    4.0726474    4.0090578  

               16 H         17 H         18 H         19 H         20 H     

   1 B       2.9709467 *  4.5427260    4.3227631    3.9806757    3.0156974  
   2 H       2.5672796 *  4.6591986    4.0059086    4.2710964    2.9111323 *
   3 H       3.8651413    5.4041387    5.3910383    4.8301701    4.0760525  
   4 H       4.1761645    4.6201769    4.4707998    3.0414388    2.3112257 *
   5 C       4.5479236    3.8879625    4.6929361    2.7275471 *  3.3482369  
   6 C       3.0706000    2.9496063 *  3.3727707    2.1880037 *  2.1942056 *
   7 C       2.1915559 *  2.9145466 *  3.3419432    3.2393054    3.0257673  
   8 C       1.0887782 *  2.1706914 *  2.2121062 *  3.3703193    2.9907099 *
   9 C       2.1917202 *  1.0876233 *  1.0868025 *  2.2073642 *  2.1844046 *
  10 C       3.0073222    2.1710421 *  2.2018850 *  1.0875371 *  1.0859850 *
  11 H       4.9199148    4.7241797    5.5016503    3.7806933    4.1595943  
  12 H       4.8792928    3.6127005    4.7846463    2.8119976 *  3.8822915  
  13 H       5.2416737    4.4442104    5.0873255    2.7046819 *  3.3610487  
  14 H       2.9271768 *  3.6364551    4.3060392    4.1057077    4.0726474  
  15 H       1.7546988 *  2.3652076 *  2.7834352 *  4.1205633    4.0090578  
  16 H       0.0000000    3.0247390    2.4101365 *  4.0281374    3.1709866  
  17 H       3.0247390    0.0000000    1.7583479 *  2.3803353 *  3.0236463  
  18 H       2.4101365 *  1.7583479 *  0.0000000    2.7768582 *  2.3958090 *
  19 H       4.0281374    2.3803353 *  2.7768582 *  0.0000000    1.7570039 *
  20 H       3.1709866    3.0236463    2.3958090 *  1.7570039 *  0.0000000  

  * ... LESS THAN  3.000


     ATOMIC BASIS SET
     ----------------
 THE CONTRACTED PRIMITIVE FUNCTIONS HAVE BEEN UNNORMALIZED
 THE CONTRACTED BASIS FUNCTIONS ARE NOW NORMALIZED TO UNITY

  SHELL TYPE  PRIMITIVE        EXPONENT          CONTRACTION COEFFICIENT(S)

 B         

      1   S       1            48.7911132    0.154328967295
      1   S       2             8.8873622    0.535328142282
      1   S       3             2.4052670    0.444634542185

      2   L       4             2.2369561   -0.099967229187    0.155916274999
      2   L       5             0.5198205    0.399512826089    0.607683718598
      2   L       6             0.1690618    0.700115468880    0.391957393099

 H         

      3   S       7             3.4252509    0.154328967295
      3   S       8             0.6239137    0.535328142282
      3   S       9             0.1688554    0.444634542185

 H         

      4   S      10             3.4252509    0.154328967295
      4   S      11             0.6239137    0.535328142282
      4   S      12             0.1688554    0.444634542185

 H         

      5   S      13             3.4252509    0.154328967295
      5   S      14             0.6239137    0.535328142282
      5   S      15             0.1688554    0.444634542185

 C         

      6   S      16            71.6168373    0.154328967295
      6   S      17            13.0450963    0.535328142282
      6   S      18             3.5305122    0.444634542185

      7   L      19             2.9412494   -0.099967229187    0.155916274999
      7   L      20             0.6834831    0.399512826089    0.607683718598
      7   L      21             0.2222899    0.700115468880    0.391957393099

 C         

      8   S      22            71.6168373    0.154328967295
      8   S      23            13.0450963    0.535328142282
      8   S      24             3.5305122    0.444634542185

      9   L      25             2.9412494   -0.099967229187    0.155916274999
      9   L      26             0.6834831    0.399512826089    0.607683718598
      9   L      27             0.2222899    0.700115468880    0.391957393099

 C         

     10   S      28            71.6168373    0.154328967295
     10   S      29            13.0450963    0.535328142282
     10   S      30             3.5305122    0.444634542185

     11   L      31             2.9412494   -0.099967229187    0.155916274999
     11   L      32             0.6834831    0.399512826089    0.607683718598
     11   L      33             0.2222899    0.700115468880    0.391957393099

 C         

     12   S      34            71.6168373    0.154328967295
     12   S      35            13.0450963    0.535328142282
     12   S      36             3.5305122    0.444634542185

     13   L      37             2.9412494   -0.099967229187    0.155916274999
     13   L      38             0.6834831    0.399512826089    0.607683718598
     13   L      39             0.2222899    0.700115468880    0.391957393099

 C         

     14   S      40            71.6168373    0.154328967295
     14   S      41            13.0450963    0.535328142282
     14   S      42             3.5305122    0.444634542185

     15   L      43             2.9412494   -0.099967229187    0.155916274999
     15   L      44             0.6834831    0.399512826089    0.607683718598
     15   L      45             0.2222899    0.700115468880    0.391957393099

 C         

     16   S      46            71.6168373    0.154328967295
     16   S      47            13.0450963    0.535328142282
     16   S      48             3.5305122    0.444634542185

     17   L      49             2.9412494   -0.099967229187    0.155916274999
     17   L      50             0.6834831    0.399512826089    0.607683718598
     17   L      51             0.2222899    0.700115468880    0.391957393099

 H         

     18   S      52             3.4252509    0.154328967295
     18   S      53             0.6239137    0.535328142282
     18   S      54             0.1688554    0.444634542185

 H         

     19   S      55             3.4252509    0.154328967295
     19   S      56             0.6239137    0.535328142282
     19   S      57             0.1688554    0.444634542185

 H         

     20   S      58             3.4252509    0.154328967295
     20   S      59             0.6239137    0.535328142282
     20   S      60             0.1688554    0.444634542185

 H         

     21   S      61             3.4252509    0.154328967295
     21   S      62             0.6239137    0.535328142282
     21   S      63             0.1688554    0.444634542185

 H         

     22   S      64             3.4252509    0.154328967295
     22   S      65             0.6239137    0.535328142282
     22   S      66             0.1688554    0.444634542185

 H         

     23   S      67             3.4252509    0.154328967295
     23   S      68             0.6239137    0.535328142282
     23   S      69             0.1688554    0.444634542185

 H         

     24   S      70             3.4252509    0.154328967295
     24   S      71             0.6239137    0.535328142282
     24   S      72             0.1688554    0.444634542185

 H         

     25   S      73             3.4252509    0.154328967295
     25   S      74             0.6239137    0.535328142282
     25   S      75             0.1688554    0.444634542185

 H         

     26   S      76             3.4252509    0.154328967295
     26   S      77             0.6239137    0.535328142282
     26   S      78             0.1688554    0.444634542185

 H         

     27   S      79             3.4252509    0.154328967295
     27   S      80             0.6239137    0.535328142282
     27   S      81             0.1688554    0.444634542185

 TOTAL NUMBER OF BASIS SET SHELLS             =   27
 NUMBER OF CARTESIAN GAUSSIAN BASIS FUNCTIONS =   48
 NUMBER OF ELECTRONS                          =   54
 CHARGE OF MOLECULE                           =    0
 SPIN MULTIPLICITY                            =    1
 NUMBER OF OCCUPIED ORBITALS (ALPHA)          =   27
 NUMBER OF OCCUPIED ORBITALS (BETA )          =   27
 TOTAL NUMBER OF ATOMS                        =   20
 THE NUCLEAR REPULSION ENERGY IS      303.1762805246

     $CONTRL OPTIONS
     ---------------
 SCFTYP=RHF          RUNTYP=SADPOINT     EXETYP=RUN     
 MPLEVL=       0     CITYP =NONE         CCTYP =NONE         VBTYP =NONE    
 DFTTYP=NONE         TDDFT =NONE    
 MULT  =       1     ICHARG=       0     NZVAR =       1     COORD =UNIQUE  
 PP    =NONE         RELWFN=NONE         LOCAL =NONE         NUMGRD=       F
 ISPHER=      -1     NOSYM =       0     MAXIT =      30     UNITS =ANGS    
 PLTORB=       F     MOLPLT=       F     AIMPAC=       F     FRIEND=        
 NPRINT=       7     IREST =       0     GEOM  =INPUT   
 NORMF =       0     NORMP =       0     ITOL  =      20     ICUT  =       9
 INTTYP=BEST         GRDTYP=BEST         QMTTOL= 1.0E-06

     $SYSTEM OPTIONS
     ---------------
  REPLICATED MEMORY=     1000000 WORDS (ON EVERY NODE).
 DISTRIBUTED MEMDDI=           0 MILLION WORDS IN AGGREGATE,
 MEMDDI DISTRIBUTED OVER   1 PROCESSORS IS           0 WORDS/PROCESSOR.
 TOTAL MEMORY REQUESTED ON EACH PROCESSOR=     1000000 WORDS.
 TIMLIM=      525600.00 MINUTES, OR     365.0 DAYS.
 PARALL= F  BALTYP=  DLB     KDIAG=    0  COREFL= F
 MXSEQ2=     300 MXSEQ3=     150  mem10=         0

          ----------------
          PROPERTIES INPUT
          ----------------

     MOMENTS            FIELD           POTENTIAL          DENSITY
 IEMOM =       1   IEFLD =       0   IEPOT =       0   IEDEN =       0
 WHERE =COMASS     WHERE =NUCLEI     WHERE =NUCLEI     WHERE =NUCLEI  
 OUTPUT=BOTH       OUTPUT=BOTH       OUTPUT=BOTH       OUTPUT=BOTH    
 IEMINT=       0   IEFINT=       0                     IEDINT=       0
                                                       MORB  =       0
          EXTRAPOLATION IN EFFECT
          SOSCF IN EFFECT
 ORBITAL PRINTING OPTION: NPREO=     1    48     2     1

     -------------------------------
     INTEGRAL TRANSFORMATION OPTIONS
     -------------------------------
     NWORD  =            0
     CUTOFF = 1.0E-09     MPTRAN =       0
     DIRTRF =       F     AOINTS =DUP     

          ----------------------
          INTEGRAL INPUT OPTIONS
          ----------------------
 NOPK  =       1 NORDER=       0 SCHWRZ=       T


 -----------------------------------------------
  STATISTICS ON AUTOMATIC COORDINATE GENERATION 
 -----------------------------------------------
  NUMBER OF USER SPECIFIED BONDS                             4
  NUMBER OF BONDS                                           22
  NUMBER OF ANGLES                                          49
  NUMBER OF TORSIONS                                        69
  NUMBER OF EXTRA COORD.                                     0
  NUMBER OF EXTRA COORD. FOR CONSTRAINTS                     0
  NUMBER OF CONSTRAINED COORD.                               0

  TOTAL NUMBER OF PRIMITIVES                               140
 -----------------------------------------------

   --- ENCODED Z MATRIX ---
 COORD  TYPE   I   J   K   L   M   N
    1      1    1   2
    2      1    1   4
    3      1    1   7
    4      1    1   3
    5      1    4   6
    6      1    5   6
    7      1    5  12
    8      1    5  11
    9      1    5  13
   10      1    6  10
   11      1    6   7
   12      1    6   7
   13      1    7  14
   14      1    7   8
   15      1    8  16
   16      1    8  15
   17      1    8   9
   18      1    9  17
   19      1    9  10
   20      1    9  18
   21      1   10  20
   22      1   10  19
   23      2    1   7  14
   24      2    1   7   8
   25      2    1   4   6
   26      2    1   7   6
   27      2    1   7   6
   28      2    2   1   3
   29      2    2   1   7
   30      2    2   1   4
   31      2    3   1   4
   32      2    3   1   7
   33      2    4   6   7
   34      2    4   6   5
   35      2    4   6  10
   36      2    4   1   7
   37      2    4   6   7
   38      2    5   6   7
   39      2    5   6   7
   40      2    5   6  10
   41      2    6   7  14
   42      2    6  10  19
   43      2    6  10  20
   44      2    6  10   9
   45      2    6   7   8
   46      2    6   5  13
   47      2    6   5  11
   48      2    6   7  14
   49      2    6   5  12
   50      2    6   7   8
   51      2    7   6  10
   52      2    7   6  10
   53      2    7   8   9
   54      2    7   8  15
   55      2    7   8  16
   56      2    8   9  10
   57      2    8   9  17
   58      2    8   7  14
   59      2    8   9  18
   60      2    9  10  19
   61      2    9  10  20
   62      2    9   8  15
   63      2    9   8  16
   64      2   10   9  18
   65      2   10   9  17
   66      2   11   5  13
   67      2   11   5  12
   68      2   12   5  13
   69      2   15   8  16
   70      2   17   9  18
   71      2   19  10  20
   72      3    1   7   8  16
   73      3    1   4   6   7
   74      3    1   4   6  10
   75      3    1   4   6   5
   76      3    1   7   6  10
   77      3    1   7   6   5
   78      3    1   7   6   4
   79      3    1   7   8   9
   80      3    1   7   8  15
   81      3    2   1   7  14
   82      3    2   1   4   6
   83      3    2   1   7   8
   84      3    2   1   7   6
   85      3    3   1   7  14
   86      3    3   1   4   6
   87      3    3   1   7   8
   88      3    3   1   7   6
   89      3    4   6  10  19
   90      3    4   6  10  20
   91      3    4   6  10   9
   92      3    4   6   5  13
   93      3    4   6   5  11
   94      3    4   6   5  12
   95      3    4   6   7   8
   96      3    4   1   7   8
   97      3    4   6   7  14
   98      3    4   1   7  14
   99      3    4   1   7   6
  100      3    5   6  10  19
  101      3    5   6  10  20
  102      3    5   6  10   9
  103      3    5   6   7   8
  104      3    5   6   7  14
  105      3    6   7   8   9
  106      3    6   7   8  15
  107      3    6   7   8  16
  108      3    6  10   9  18
  109      3    6  10   9  17
  110      3    6  10   9   8
  111      3    6   4   1   7
  112      3    7   6   5  13
  113      3    7   6   5  11
  114      3    7   6   5  12
  115      3    7   6  10   9
  116      3    7   6  10  20
  117      3    7   6  10  19
  118      3    7   8   9  18
  119      3    7   8   9  10
  120      3    7   8   9  17
  121      3    8   7   6  10
  122      3    8   9  10  19
  123      3    8   9  10  20
  124      3    9   8   7  14
  125      3   10   6   7  14
  126      3   10   9   8  15
  127      3   10   9   8  16
  128      3   10   6   5  13
  129      3   10   6   5  11
  130      3   10   6   5  12
  131      3   14   7   8  16
  132      3   14   7   8  15
  133      3   15   8   9  18
  134      3   15   8   9  17
  135      3   16   8   9  18
  136      3   16   8   9  17
  137      3   17   9  10  20
  138      3   17   9  10  19
  139      3   18   9  10  20
  140      3   18   9  10  19

          INDEP./SYM. INTERNAL COORDINATES
          --------------------------------
 CRD  1=  -0.2731 ( 10) -0.1007 ( 19)  0.2849 ( 38)  0.2849 ( 39) -0.4182 ( 40)
          -0.1043 ( 42) -0.2111 ( 46)  0.2421 ( 47) -0.1010 ( 49) -0.1156 ( 74)
           0.3052 ( 75) -0.1498 ( 77) -0.2060 (103) -0.1662 (104) -0.1055 (130)
 CRD  2=  -0.1636 ( 10) -0.2295 ( 14)  0.1311 ( 23) -0.2245 ( 24) -0.1094 ( 29)
           0.2876 ( 34) -0.2084 ( 35) -0.1334 ( 38) -0.1334 ( 39) -0.1043 ( 44)
           0.1527 ( 46) -0.2024 ( 49)  0.1179 ( 51)  0.1179 ( 52)  0.1002 ( 74)
           0.1090 ( 75) -0.2685 ( 76) -0.3101 ( 77) -0.1456 ( 82) -0.1029 ( 86)
          -0.1073 ( 90) -0.1133 ( 93)  0.1583 ( 95)  0.1484 ( 97)  0.1242 (100)
           0.1047 (101)  0.1132 (102) -0.1067 (104)
 CRD  3=   0.1072 (  3) -0.5063 (  6) -0.1045 ( 11) -0.1045 ( 12) -0.1213 ( 14)
           0.1744 ( 24) -0.1589 ( 38) -0.1589 ( 39) -0.1619 ( 44) -0.1733 ( 47)
          -0.2669 ( 49)  0.1244 ( 51)  0.1244 ( 52)  0.1266 ( 61)  0.1154 ( 66)
           0.1584 ( 67)  0.1262 ( 68) -0.1813 ( 74) -0.1607 ( 75)  0.1279 ( 76)
           0.1239 ( 91) -0.1751 ( 95)  0.1858 (102) -0.1300 (103)
 CRD  4=   0.3114 (  3)  0.4065 (  6)  0.3197 ( 10)  0.1350 ( 14)  0.1103 ( 24)
           0.1250 ( 25) -0.1415 ( 28)  0.1388 ( 29) -0.1306 ( 36)  0.2559 ( 46)
           0.1820 ( 47) -0.1141 ( 49) -0.1665 ( 66)  0.1142 ( 82)  0.1000 ( 92)
          -0.1366 ( 95)  0.1174 (101)  0.1612 (102) -0.1709 (103) -0.1267 (129)
 CRD  5=  -0.1651 (  2)  0.2828 (  3) -0.3003 ( 10)  0.2865 ( 14)  0.1267 ( 16)
          -0.1201 ( 22) -0.1308 ( 26) -0.1308 ( 27) -0.1030 ( 30) -0.1041 ( 31)
           0.1468 ( 32)  0.1132 ( 33)  0.1132 ( 37) -0.1487 ( 43)  0.1477 ( 44)
          -0.1164 ( 53)  0.1298 ( 57) -0.1088 ( 65)  0.1085 ( 72)  0.2235 ( 79)
           0.1546 ( 80)  0.1010 ( 81) -0.1326 ( 86)  0.1278 ( 89)  0.1661 ( 91)
           0.1152 (105) -0.1227 (121) -0.1120 (123)
 CRD  6=   0.2786 (  3) -0.2239 (  6) -0.1494 ( 11) -0.1494 ( 12)  0.1585 ( 17)
           0.1168 ( 20)  0.1126 ( 25) -0.1375 ( 28)  0.1693 ( 32) -0.1696 ( 36)
          -0.1528 ( 43)  0.2159 ( 44) -0.1321 ( 45) -0.1823 ( 46) -0.1321 ( 50)
           0.2675 ( 53) -0.2098 ( 55) -0.3134 ( 56)  0.1126 ( 57)  0.1256 ( 58)
           0.1611 ( 59) -0.1045 ( 60) -0.1212 ( 62)  0.1036 ( 65)  0.1068 ( 69)
          -0.1240 ( 70) -0.1390 ( 86)  0.1175 (109)  0.1045 (110) -0.1046 (118)
 CRD  7=  -0.2017 ( 10)  0.3529 ( 14)  0.1071 ( 15)  0.2849 ( 17)  0.1082 ( 30)
          -0.1015 ( 41) -0.1033 ( 42)  0.2778 ( 46) -0.3038 ( 47) -0.1015 ( 48)
           0.1013 ( 49) -0.1908 ( 53)  0.1692 ( 54)  0.1277 ( 58)  0.1156 ( 59)
           0.1287 ( 63) -0.1450 ( 64) -0.1453 ( 68) -0.1009 ( 69) -0.1294 ( 74)
          -0.1169 ( 83) -0.1298 ( 84) -0.1019 ( 91)
 CRD  8=  -0.2901 (  3) -0.1384 (  7)  0.1802 ( 14) -0.1081 ( 25)  0.1304 ( 28)
          -0.1357 ( 29)  0.1160 ( 36) -0.1110 ( 42)  0.1908 ( 44)  0.2679 ( 46)
           0.2368 ( 47) -0.5436 ( 49) -0.1867 ( 56) -0.2026 ( 66)  0.1193 ( 67)
           0.1187 ( 68)
 CRD  9=  -0.1401 (  3)  0.1358 (  8) -0.1226 (  9)  0.2855 ( 10)  0.1169 ( 14)
           0.3250 ( 17) -0.2878 ( 19) -0.1131 ( 29)  0.1080 ( 42) -0.3392 ( 46)
           0.3833 ( 47)  0.1092 ( 56)  0.1122 ( 62) -0.1365 ( 64) -0.1402 ( 65)
          -0.1616 ( 67)  0.1448 ( 68)  0.1374 (137) -0.1291 (140)
 CRD 10=   0.1124 ( 16)  0.3943 ( 17)  0.5903 ( 19)  0.1598 ( 20)  0.1636 ( 22)
          -0.1149 ( 46)  0.1037 ( 47)  0.1027 ( 51)  0.1027 ( 52)  0.1621 ( 60)
           0.1168 ( 61)  0.1202 ( 63) -0.1026 (101)
 CRD 11=   0.1659 (  3) -0.1382 (  6)  0.1161 ( 10)  0.2270 ( 14) -0.3582 ( 17)
           0.1303 ( 19)  0.1304 ( 22)  0.2124 ( 32) -0.1112 ( 44) -0.1312 ( 46)
           0.1732 ( 47) -0.1818 ( 49)  0.2254 ( 54)  0.1847 ( 56) -0.2245 ( 57)
           0.1040 ( 60) -0.1713 ( 62)  0.1120 ( 65)  0.1487 ( 68)  0.1267 ( 80)
          -0.1939 ( 86) -0.1113 ( 91) -0.1024 (102)  0.1005 (106) -0.1399 (115)
          -0.1461 (120)  0.1270 (126)  0.1145 (133) -0.1155 (136)
 CRD 12=   0.2038 (  3) -0.1199 (  7)  0.1081 (  9)  0.1129 ( 11)  0.1129 ( 12)
          -0.1739 ( 14)  0.1292 ( 16)  0.1879 ( 17) -0.1885 ( 19)  0.1228 ( 23)
           0.2050 ( 29) -0.1041 ( 34)  0.2103 ( 46) -0.2543 ( 49) -0.1751 ( 55)
          -0.1305 ( 58)  0.1188 ( 59) -0.1064 ( 61)  0.1650 ( 63) -0.2005 ( 64)
          -0.1126 ( 66)  0.1255 ( 67)  0.1346 ( 72)  0.1607 ( 82)  0.1538 ( 83)
           0.1040 ( 96) -0.1044 (102) -0.1562 (118)  0.1330 (127)  0.1072 (131)
 CRD 13=   0.1607 (  1) -0.1411 (  4)  0.1418 (  6) -0.1121 (  9) -0.2620 ( 10)
          -0.1555 ( 11) -0.1555 ( 12) -0.2005 ( 13) -0.1044 ( 14)  0.2811 ( 29)
          -0.2381 ( 32) -0.1120 ( 42) -0.1592 ( 46)  0.2572 ( 47) -0.1020 ( 55)
          -0.1066 ( 57)  0.1281 ( 63) -0.1617 ( 67) -0.1098 ( 75)  0.3056 ( 82)
           0.2886 ( 86)  0.1126 (122)
 CRD 14=  -0.1061 (  1) -0.2448 (  2)  0.1110 (  5) -0.1305 ( 14) -0.1195 ( 16)
           0.1346 ( 21) -0.2087 ( 22) -0.1241 ( 29) -0.1234 ( 31)  0.2060 ( 32)
          -0.2049 ( 42)  0.2546 ( 43)  0.1001 ( 49) -0.1175 ( 57)  0.1937 ( 59)
          -0.1516 ( 61) -0.1243 ( 64)  0.1634 ( 65) -0.1141 ( 82) -0.2131 ( 86)
           0.1143 ( 90)  0.1397 (101) -0.1131 (105) -0.2181 (108) -0.2086 (109)
          -0.1070 (110)  0.1083 (116)  0.1330 (119)  0.1215 (123)  0.1137 (127)
          -0.1031 (128) -0.1190 (129) -0.1006 (130)
 CRD 15=  -0.1108 (  4)  0.1451 ( 10)  0.5132 ( 13)  0.1960 ( 14)  0.2187 ( 21)
           0.1917 ( 29) -0.1440 ( 30) -0.2174 ( 32) -0.1297 ( 45) -0.1297 ( 50)
           0.1118 ( 58) -0.1245 ( 63) -0.1062 ( 64)  0.1391 ( 65)  0.1622 ( 82)
           0.1213 ( 84)  0.1726 ( 86) -0.1068 ( 96) -0.1002 (107) -0.1009 (125)
           0.1287 (126)
 CRD 16=   0.1823 (  2)  0.1491 (  4) -0.1880 (  5) -0.2216 ( 15) -0.3288 ( 18)
           0.2657 ( 20)  0.1238 ( 21) -0.1548 ( 42) -0.1680 ( 57)  0.1453 ( 59)
           0.1024 ( 60)  0.1072 ( 92)  0.1149 ( 93)  0.1058 ( 94) -0.1125 (109)
           0.1647 (112)  0.1724 (113)  0.1633 (114)  0.2141 (122)  0.1791 (123)
          -0.1381 (126)  0.1687 (128)  0.1764 (129)  0.1673 (130)
 CRD 17=   0.1322 (  4) -0.1788 (  5) -0.1277 ( 13) -0.1470 ( 14)  0.3796 ( 18)
          -0.3263 ( 20)  0.2554 ( 21)  0.1181 ( 54) -0.1375 ( 55)  0.1284 ( 61)
          -0.1159 ( 64)  0.1404 ( 65) -0.1157 ( 98)  0.1087 (113)  0.1047 (114)
          -0.1445 (122) -0.1532 (123)  0.1891 (126)  0.2020 (127)  0.1558 (128)
           0.1666 (129)  0.1627 (130)
 CRD 18=   0.3482 (  5)  0.1802 (  7) -0.1917 ( 13)  0.1426 ( 14)  0.2594 ( 16)
           0.1007 ( 21) -0.1590 ( 22)  0.1019 ( 28) -0.1196 ( 29) -0.1006 ( 32)
           0.1147 ( 36) -0.1124 ( 46) -0.1008 ( 47)  0.1503 ( 54) -0.1222 ( 55)
          -0.1802 ( 60)  0.1406 ( 66) -0.1292 ( 82)  0.1085 ( 83)  0.1258 ( 85)
           0.1594 ( 87)  0.1092 ( 88) -0.1326 ( 89) -0.1166 ( 95)  0.1186 (102)
          -0.1418 (103) -0.1048 (104)  0.1016 (107) -0.1181 (117) -0.1251 (118)
          -0.1191 (120)
 CRD 19=   0.1081 (  1)  0.1385 (  2)  0.2231 (  7)  0.2215 (  8)  0.2397 (  9)
           0.1072 ( 14)  0.4106 ( 15) -0.2085 ( 16)  0.1074 ( 18) -0.1344 ( 46)
          -0.1120 ( 47) -0.1155 ( 49) -0.1093 ( 62)  0.1603 ( 63)  0.1305 ( 66)
           0.1107 ( 67)  0.1304 ( 68)  0.1050 ( 85)  0.1251 ( 87)  0.1138 ( 96)
           0.1075 (107)  0.1387 (118)  0.1269 (120) -0.1098 (124)
 CRD 20=   0.1791 (  5) -0.1343 (  6) -0.3120 (  7) -0.4138 (  8) -0.3998 (  9)
           0.1368 ( 13)  0.2179 ( 15) -0.1497 ( 16) -0.1025 ( 21)  0.1218 ( 46)
           0.1142 ( 47)  0.1637 ( 49) -0.1324 ( 62)  0.1337 ( 63) -0.1176 ( 66)
          -0.1449 ( 67) -0.1482 ( 68)  0.1297 ( 72)  0.1282 ( 80)  0.1031 (106)
           0.1047 (107)
 CRD 21=   0.2061 (  1)  0.1604 (  2) -0.2803 (  5) -0.2716 (  7) -0.1305 (  8)
          -0.1081 (  9)  0.1143 ( 13)  0.2888 ( 21) -0.2898 ( 22)  0.1566 ( 30)
          -0.1183 ( 36)  0.1019 ( 59) -0.1880 ( 60)  0.1800 ( 61)  0.1074 ( 91)
          -0.1217 ( 92) -0.1060 ( 93) -0.1224 ( 94)  0.1172 ( 98) -0.1965 (100)
          -0.1926 (101) -0.1232 (108) -0.1128 (109) -0.1709 (116) -0.1747 (117)
 CRD 22=  -0.3323 (  1) -0.3645 (  4)  0.1555 (  5)  0.1305 (  6)  0.1157 (  7)
           0.1145 (  8)  0.1744 (  9)  0.2216 ( 13) -0.1144 ( 14) -0.2767 ( 16)
           0.1179 ( 20)  0.1054 ( 36) -0.1078 ( 43) -0.1286 ( 60)  0.1610 ( 61)
          -0.1119 ( 62)  0.1303 ( 72)  0.1405 ( 80) -0.1093 ( 83) -0.1153 ( 85)
          -0.1276 ( 87) -0.1542 ( 89) -0.1686 ( 90) -0.1009 (100) -0.1154 (101)
          -0.1641 (116) -0.1496 (117)
 CRD 23=  -0.5670 (  1) -0.5119 (  4) -0.1637 (  5) -0.1940 ( 13)  0.1780 ( 16)
          -0.2325 ( 28)  0.1155 ( 29)  0.1014 ( 31)  0.1717 ( 85) -0.1036 ( 86)
           0.1661 ( 87)  0.1288 ( 88)
 CRD 24=  -0.2148 (  1) -0.1026 (  3)  0.3035 (  4) -0.2533 (  5)  0.1976 (  8)
          -0.1978 ( 30)  0.1943 ( 31)  0.1034 ( 54) -0.1076 ( 55) -0.1345 ( 62)
           0.1103 ( 63)  0.1155 ( 72)  0.1249 ( 80)  0.1621 ( 81)  0.1157 ( 83)
           0.1620 ( 84)  0.1090 ( 85)  0.1089 ( 88) -0.1586 ( 92) -0.1713 ( 93)
          -0.2124 ( 94) -0.1130 ( 96)  0.1384 (106)  0.1290 (107) -0.1236 (112)
          -0.1363 (113) -0.1774 (114) -0.1300 (130)  0.1447 (131)  0.1541 (132)
 CRD 25=  -0.1573 (  1)  0.1006 (  3)  0.2136 (  4)  0.1434 (  5)  0.1154 (  8)
           0.4169 ( 15)  0.1156 ( 16) -0.1337 ( 18) -0.1709 ( 20) -0.1308 ( 21)
          -0.1561 ( 30)  0.1420 ( 31) -0.1645 ( 54)  0.1072 ( 59)  0.1178 ( 65)
           0.1090 ( 87)  0.1098 ( 88) -0.1286 ( 90)  0.1065 ( 95)  0.1148 ( 97)
          -0.1170 (107) -0.1064 (116) -0.1203 (126) -0.1055 (131) -0.1557 (133)
          -0.2057 (134) -0.1248 (136) -0.1044 (137) -0.1002 (138) -0.1274 (139)
          -0.1232 (140)
 CRD 26=   0.4791 (  8) -0.5567 (  9)  0.1356 ( 21)  0.1304 ( 22)  0.3067 ( 67)
          -0.2665 ( 68)  0.1167 ( 92)  0.1558 ( 93) -0.1664 ( 94)  0.1173 (112)
           0.1564 (113) -0.1658 (114)  0.1033 (128)  0.1424 (129) -0.1798 (130)
 CRD 27=  -0.6020 (  7)  0.3634 (  8)  0.1906 (  9)  0.1586 ( 18)  0.1175 ( 20)
          -0.1230 ( 21) -0.1100 ( 22)  0.3237 ( 66) -0.1162 ( 67) -0.2015 ( 68)
           0.2090 ( 92) -0.1319 ( 93)  0.2110 (112) -0.1299 (113)  0.1941 (128)
          -0.1468 (129)
 CRD 28=  -0.1869 (  7)  0.1988 (  9) -0.4546 ( 18) -0.4301 ( 20)  0.3875 ( 21)
           0.3458 ( 22)  0.1075 ( 66) -0.1657 ( 70)  0.1366 ( 71) -0.1013 (129)
           0.1423 (138) -0.1029 (139)
 CRD 29=  -0.2491 ( 16)  0.2964 ( 18)  0.3224 ( 20)  0.3459 ( 21)  0.4966 ( 22)
           0.1020 ( 55)  0.1219 ( 70)  0.1692 ( 71) -0.1053 ( 89) -0.1044 (133)
          -0.1638 (135) -0.1762 (137)
 CRD 30=  -0.1234 ( 14)  0.4261 ( 15)  0.5409 ( 16)  0.1497 ( 18)  0.2912 ( 20)
           0.1447 ( 21)  0.1357 ( 22) -0.1035 ( 55) -0.1183 ( 62)  0.2357 ( 69)
           0.1471 ( 80) -0.1086 ( 85) -0.1303 ( 87)  0.1328 (106)  0.1089 (127)
           0.1231 (132)  0.1036 (135)  0.1785 (136)
 CRD 31=  -0.1102 (  1)  0.1560 (  2)  0.1156 (  3)  0.1005 (  4)  0.2294 (  5)
          -0.1065 ( 10)  0.1668 ( 13) -0.1911 ( 15)  0.1803 ( 16)  0.3165 ( 21)
          -0.2145 ( 22)  0.1074 ( 31) -0.1077 ( 42)  0.1127 ( 57) -0.1296 ( 59)
           0.1151 ( 64) -0.1274 ( 65) -0.1194 ( 80)  0.1003 ( 87) -0.1166 ( 89)
           0.1039 ( 95)  0.1052 ( 97) -0.1322 (106) -0.1125 (117)  0.1089 (120)
           0.1247 (122) -0.1117 (132)  0.1139 (133)  0.1326 (134)  0.1262 (135)
           0.1448 (136)  0.1471 (137)  0.1980 (138)  0.1607 (139)  0.2116 (140)
 CRD 32=   0.4856 (  2)  0.1611 (  5)  0.1040 ( 11)  0.1040 ( 12)  0.1903 ( 13)
          -0.1633 ( 21)  0.1981 ( 22) -0.1160 ( 29)  0.1618 ( 30)  0.1275 ( 31)
           0.1118 ( 33)  0.1118 ( 37) -0.2269 ( 81) -0.1652 ( 83) -0.1538 ( 84)
           0.1348 ( 89)  0.1880 ( 90)  0.1316 ( 91) -0.1607 ( 92) -0.1891 ( 93)
          -0.1409 ( 94)  0.1193 (101) -0.1185 (129)
 CRD 33=  -0.1402 ( 15)  0.1436 ( 16) -0.2966 ( 18)  0.2692 ( 20) -0.1053 (106)
          -0.1493 (108) -0.1401 (109) -0.1176 (110)  0.1667 (118)  0.1223 (119)
           0.1522 (120) -0.1905 (122) -0.1776 (123)  0.1969 (126)  0.1684 (127)
           0.2413 (133)  0.2269 (134)  0.2129 (135)  0.1984 (136) -0.2001 (137)
          -0.2130 (138) -0.2092 (139) -0.2221 (140)
 CRD 34=  -0.1223 (  1) -0.1316 (  5)  0.1428 (  7)  0.1757 (  8)  0.1322 (  9)
          -0.1075 ( 10) -0.1350 ( 11) -0.1350 ( 12)  0.4220 ( 13) -0.1900 ( 15)
           0.1857 ( 16)  0.1801 ( 18) -0.1981 ( 20) -0.1861 ( 21)  0.1602 ( 22)
           0.1172 ( 46)  0.1576 ( 47)  0.1523 ( 49) -0.1536 ( 66) -0.1570 ( 67)
          -0.1276 ( 68)  0.1184 ( 81) -0.1370 ( 82)  0.1119 ( 85) -0.1327 ( 95)
          -0.1046 ( 97)  0.1583 ( 98)
 CRD 35=   0.2018 (  2) -0.1893 (  3)  0.1945 (  4)  0.2861 (  5)  0.1149 (  8)
           0.1329 ( 15) -0.1490 ( 16) -0.1485 ( 18)  0.1367 ( 21) -0.1165 ( 22)
          -0.1807 ( 23) -0.1069 ( 25) -0.2243 ( 28)  0.1755 ( 29) -0.1344 ( 31)
           0.1929 ( 32)  0.1150 ( 36)  0.1392 ( 58) -0.1182 ( 66)  0.1841 ( 82)
          -0.2436 ( 86) -0.2383 ( 97) -0.1171 (104)  0.1200 (124) -0.1785 (125)
 CRD 36=   0.1396 (  2)  0.2199 (  5) -0.2011 (  6)  0.1228 (  7)  0.2684 (  9)
           0.1295 ( 10) -0.1092 ( 11) -0.1092 ( 12) -0.3314 ( 13)  0.1014 ( 22)
           0.1146 ( 33)  0.1146 ( 37)  0.2094 ( 46)  0.1141 ( 47)  0.1651 ( 49)
          -0.1237 ( 63) -0.1960 ( 66) -0.2229 ( 68) -0.1177 ( 71)  0.1094 ( 80)
           0.1145 ( 85)  0.1057 ( 89) -0.1228 ( 94) -0.1011 (101) -0.1376 (107)
          -0.1838 (131)  0.1165 (137)
 CRD 37=  -0.1440 (  1) -0.2412 (  2)  0.4375 (  3)  0.1292 (  5)  0.1574 ( 15)
          -0.1344 ( 16) -0.1955 ( 18)  0.1128 ( 20)  0.1967 ( 21) -0.1567 ( 22)
           0.1300 ( 25)  0.1824 ( 28) -0.2110 ( 29)  0.1508 ( 30)  0.1049 ( 31)
          -0.2122 ( 32)  0.1055 ( 60) -0.1076 ( 66) -0.2242 ( 82)  0.2144 ( 86)
           0.1341 (117) -0.1111 (118)
 CRD 38=   0.1997 (  5)  0.4108 (  6) -0.2171 (  7) -0.1763 (  8)  0.1224 ( 10)
          -0.1536 ( 20)  0.1420 ( 22) -0.1466 ( 46) -0.1732 ( 47) -0.1625 ( 49)
           0.1084 ( 58)  0.1255 ( 60)  0.1400 ( 61) -0.1333 ( 65)  0.1091 ( 66)
           0.2423 ( 67)  0.1468 ( 68)  0.1252 ( 69)  0.1047 ( 85)  0.1208 ( 89)
           0.1147 ( 98) -0.1606 (101) -0.1225 (116)  0.1530 (120) -0.1146 (133)
           0.1984 (136)
 CRD 39=   0.1678 (  1) -0.1746 (  4)  0.1138 (  5)  0.2343 ( 10)  0.1388 ( 16)
           0.2566 ( 17) -0.3209 ( 19) -0.1288 ( 20) -0.1203 ( 42) -0.1435 ( 43)
          -0.2274 ( 57) -0.1730 ( 59)  0.1787 ( 64)  0.1348 ( 65) -0.1061 ( 69)
           0.1234 ( 71)  0.1073 ( 72)  0.1200 (108) -0.1883 (109)  0.1437 (118)
           0.1167 (122) -0.1230 (123)  0.1013 (131)  0.1335 (133) -0.1234 (136)
          -0.3230 (137)  0.2250 (140)
 CRD 40=  -0.3526 (  1)  0.3090 (  4)  0.1784 (  6) -0.1123 (  8) -0.2555 ( 14)
           0.1928 ( 17) -0.1168 ( 19)  0.1378 ( 20)  0.1132 ( 30) -0.1447 ( 31)
          -0.1083 ( 41)  0.1092 ( 42) -0.1083 ( 48)  0.1106 ( 55) -0.1006 ( 59)
           0.1191 ( 64)  0.1558 ( 65)  0.1054 ( 67) -0.1165 ( 70) -0.1135 ( 88)
           0.1333 ( 90)  0.1901 ( 98) -0.1491 (120)  0.1509 (133) -0.2371 (136)
 CRD 41=   0.1200 (  7) -0.2211 (  8)  0.1318 (  9)  0.1078 ( 10) -0.1486 ( 11)
          -0.1486 ( 12)  0.2260 ( 14) -0.1308 ( 17)  0.1017 ( 42) -0.1587 ( 54)
          -0.1949 ( 55) -0.1110 ( 59)  0.2018 ( 62)  0.1692 ( 63) -0.1937 ( 68)
           0.1158 ( 70)  0.1342 ( 72) -0.1303 ( 80) -0.1839 ( 94) -0.1627 (106)
           0.1018 (107)  0.1197 (108)  0.1858 (112) -0.1131 (126)  0.1181 (127)
           0.1378 (128) -0.1039 (130)  0.1059 (131) -0.1586 (132) -0.1101 (133)
           0.1210 (135)  0.1383 (136) -0.1718 (138)  0.1494 (139)
 CRD 42=  -0.2709 (  1)  0.1928 (  4) -0.1282 (  5) -0.1251 (  6)  0.1984 (  7)
          -0.1244 (  9)  0.2455 ( 10) -0.1216 ( 13)  0.1085 ( 23)  0.1099 ( 29)
          -0.1414 ( 31) -0.1070 ( 32) -0.1520 ( 42) -0.1711 ( 43)  0.1097 ( 60)
           0.1040 ( 61)  0.1142 ( 66) -0.1386 ( 67)  0.1329 ( 70)  0.1071 ( 74)
          -0.1685 ( 85)  0.1119 ( 86) -0.1122 ( 87) -0.1198 ( 88) -0.1265 ( 93)
          -0.1265 (113)  0.1336 (122) -0.1050 (123) -0.1836 (129)  0.1402 (134)
           0.1011 (136) -0.1618 (137)  0.1463 (140)
 CRD 43=   0.3748 (  2)  0.1572 (  3) -0.2278 (  4) -0.1127 ( 10)  0.1753 ( 11)
           0.1753 ( 12)  0.3340 ( 28) -0.1829 ( 30) -0.1243 ( 31)  0.1145 ( 58)
           0.2979 ( 81) -0.1303 ( 82)  0.2036 ( 83)  0.2385 ( 84) -0.1059 ( 85)
          -0.2002 ( 87) -0.1653 ( 88)  0.1061 (135)
 CRD 44=   0.1866 (  1) -0.1530 (  4) -0.1058 (  5)  0.2480 (  6)  0.2061 (  7)
          -0.1180 (  8) -0.1797 (  9) -0.1359 ( 14)  0.1410 ( 15) -0.1022 ( 16)
          -0.1615 ( 18)  0.1403 ( 20)  0.1145 ( 24) -0.1032 ( 49)  0.2212 ( 66)
          -0.1119 ( 74)  0.1524 ( 76)  0.1507 ( 85) -0.1016 ( 86)  0.1072 ( 88)
           0.1110 ( 92) -0.1616 ( 93) -0.1015 (106)  0.1489 (108)  0.1005 (109)
           0.1615 (112) -0.1112 (113) -0.1050 (118) -0.1162 (120)  0.1237 (126)
          -0.1766 (129) -0.1259 (131) -0.1312 (132)  0.1332 (140)
 CRD 45=   0.2239 (  2)  0.1015 (  9) -0.1699 ( 11) -0.1699 ( 12)  0.1394 ( 13)
          -0.1017 ( 14)  0.1811 ( 16) -0.2166 ( 17) -0.1198 ( 19)  0.1151 ( 20)
           0.1479 ( 28) -0.1073 ( 30)  0.1114 ( 57)  0.1032 ( 60) -0.2241 ( 69)
          -0.1218 ( 71) -0.1201 ( 79) -0.1714 ( 80)  0.1617 ( 83)  0.1158 ( 84)
          -0.2104 ( 85) -0.1371 ( 88)  0.1151 ( 89)  0.1351 (100)  0.1362 (107)
           0.1227 (117)  0.1177 (126) -0.1249 (127) -0.1229 (130)  0.1330 (131)
          -0.1862 (135) -0.1600 (136)  0.1049 (137)
 CRD 46=  -0.2564 (  8)  0.2355 (  9)  0.1088 ( 11)  0.1088 ( 12) -0.1049 ( 14)
           0.1691 ( 19) -0.1842 ( 22) -0.1260 ( 46)  0.1545 ( 47)  0.1680 ( 67)
          -0.2092 ( 68)  0.1810 ( 71) -0.1190 ( 72) -0.1330 ( 75)  0.1395 ( 92)
          -0.1983 ( 94)  0.1517 (101)  0.1046 (106)  0.1064 (112) -0.2314 (114)
           0.1291 (116) -0.1330 (123)  0.1160 (128) -0.2218 (130)  0.1011 (132)
          -0.1134 (137) -0.1703 (139)
 CRD 47=  -0.1126 (  9) -0.2582 ( 15)  0.1439 ( 16)  0.2691 ( 21) -0.1534 ( 22)
           0.1006 ( 38)  0.1006 ( 39)  0.1191 ( 42) -0.1047 ( 54)  0.1230 ( 60)
          -0.1330 ( 62)  0.1030 ( 63)  0.1309 ( 80)  0.1427 ( 89) -0.1110 ( 93)
           0.1302 ( 97)  0.1200 (100) -0.1068 (102)  0.1067 (104)  0.1553 (106)
          -0.1249 (113)  0.1637 (117) -0.2118 (122) -0.1202 (123) -0.1447 (124)
           0.1388 (125) -0.1886 (126) -0.1306 (129) -0.2038 (133) -0.1486 (134)
          -0.1079 (135) -0.1414 (138) -0.1422 (140)
 CRD 48=  -0.1879 (  3)  0.1103 (  6) -0.1943 (  7)  0.1073 (  8) -0.1408 ( 11)
          -0.1408 ( 12) -0.2211 ( 18)  0.2333 ( 19)  0.1027 ( 23) -0.1172 ( 40)
          -0.1143 ( 58) -0.1108 ( 64) -0.1276 ( 66)  0.1045 ( 68)  0.1968 ( 70)
           0.1280 ( 90) -0.1587 ( 92)  0.1658 (101)  0.1046 (102) -0.1373 (103)
           0.1715 (108) -0.1166 (112)  0.1349 (113) -0.2136 (118) -0.1456 (124)
           0.1568 (125) -0.1733 (128) -0.1247 (131) -0.1127 (132) -0.1507 (133)
           0.1024 (134) -0.2105 (135)  0.1149 (139)  0.1524 (140)
 CRD 49=   0.1714 ( 10)  0.2150 ( 14) -0.1759 ( 17) -0.1384 ( 19)  0.2520 ( 20)
          -0.1221 ( 44) -0.1035 ( 53) -0.1040 ( 55)  0.2051 ( 56)  0.1035 ( 63)
          -0.2184 ( 70)  0.1153 ( 71)  0.2018 (109) -0.1900 (120) -0.2085 (123)
           0.1955 (127) -0.3066 (134)  0.1969 (135)  0.3148 (138) -0.2132 (139)
 CRD 50=   0.1464 ( 10) -0.1332 ( 14)  0.1359 ( 16) -0.2355 ( 17)  0.2123 ( 19)
          -0.1793 ( 22) -0.1278 ( 40) -0.1480 ( 44)  0.1237 ( 53)  0.1146 ( 58)
           0.1380 ( 59) -0.1190 ( 65) -0.1716 ( 69)  0.1891 ( 71)  0.1683 ( 72)
           0.1702 ( 90) -0.1747 (100) -0.1420 (102) -0.1103 (106)  0.1026 (107)
           0.1000 (109)  0.1095 (114)  0.1324 (116) -0.1145 (117)  0.1035 (122)
          -0.1313 (127)  0.1602 (130)  0.1307 (131)  0.1510 (134) -0.1121 (135)
           0.1234 (138) -0.2383 (139)
 CRD 51=   0.2833 ( 11)  0.2833 ( 12) -0.1400 ( 13)  0.1752 ( 16) -0.1439 ( 18)
          -0.1307 ( 45) -0.1307 ( 50)  0.1039 ( 53) -0.1287 ( 54)  0.1079 ( 57)
           0.1798 ( 58)  0.1466 ( 63)  0.2535 ( 72) -0.1729 ( 83)  0.1260 ( 85)
          -0.1246 ( 96)  0.1189 (102) -0.1263 (105)  0.1316 (107) -0.1487 (110)
           0.1755 (119) -0.1627 (124) -0.1409 (133) -0.1994 (135)  0.1257 (139)
           0.1223 (140)
 CRD 52=   0.2046 (  6) -0.2401 ( 10) -0.1571 ( 13)  0.1927 ( 14) -0.1816 ( 38)
          -0.1816 ( 39)  0.2175 ( 41) -0.1730 ( 45)  0.2175 ( 48) -0.1730 ( 50)
           0.1840 ( 51)  0.1840 ( 52)  0.2150 ( 73) -0.1937 ( 78)  0.1329 ( 84)
           0.1348 ( 88) -0.1600 ( 95) -0.1551 ( 97)  0.1593 ( 99)  0.1229 (103)
           0.1278 (104) -0.1187 (111) -0.1023 (113) -0.1508 (114) -0.1124 (115)
          -0.1034 (140)
 CRD 53=  -0.1325 (  5)  0.1844 ( 11)  0.1844 ( 12)  0.1384 ( 15)  0.1159 ( 18)
           0.1426 ( 21)  0.1079 ( 60)  0.1021 ( 62)  0.1505 ( 79) -0.1011 ( 83)
           0.1265 ( 85)  0.1007 ( 89)  0.2307 (100)  0.1118 (101) -0.1455 (103)
           0.1308 (105)  0.1725 (110) -0.1013 (115) -0.1794 (119)  0.1519 (125)
          -0.1837 (128) -0.1540 (130) -0.1526 (131) -0.2730 (132)  0.1538 (133)
           0.1085 (134) -0.1098 (138) -0.1562 (140)
 CRD 54=   0.1651 (  3) -0.1547 (  5) -0.1008 ( 23) -0.1055 ( 26) -0.1055 ( 27)
           0.1460 ( 33)  0.1460 ( 37)  0.1126 ( 76) -0.1549 ( 77)  0.1239 ( 95)
          -0.1970 ( 97)  0.1744 (100)  0.1204 (101) -0.3489 (104) -0.1886 (105)
          -0.1080 (106) -0.1557 (107)  0.1160 (112)  0.2373 (113)  0.1794 (114)
          -0.1808 (115) -0.1500 (116)  0.2394 (121)  0.1328 (124) -0.1803 (128)
          -0.1169 (130)  0.1657 (131)  0.2134 (132)

 THE DETERMINANT OF THE G MATRIX IS 10**(   -12)


                     --------------------
                     INTERNAL COORDINATES
                     --------------------

                 - - ATOMS - -         COORDINATE      COORDINATE
 NO.   TYPE    I  J  K  L  M  N        (BOHR,RAD)       (ANG,DEG)
 ----------------------------------------------------------------
   1 STRETCH   1  2                     2.1782993       1.1527064
   2 STRETCH   1  4                     3.7416574       1.9800000
   3 STRETCH   1  7                     3.9306300       2.0800000
   4 STRETCH   1  3                     2.1785391       1.1528333
   5 STRETCH   4  6                     3.7983492       2.0100000
   6 STRETCH   5  6                     2.9045976       1.5370469
   7 STRETCH   5 12                     2.0580424       1.0890692
   8 STRETCH   5 11                     2.0518349       1.0857844
   9 STRETCH   5 13                     2.0501571       1.0848965
  10 STRETCH   6 10                     2.9402472       1.5559119
  11 STRETCH   6  7                     2.6722533       1.4140957
  12 STRETCH   6  7                     2.6722533       1.4140957
  13 STRETCH   7 14                     2.0411053       1.0801065
  14 STRETCH   7  8                     2.8914338       1.5300810
  15 STRETCH   8 16                     2.0574925       1.0887782
  16 STRETCH   8 15                     2.0560905       1.0880363
  17 STRETCH   8  9                     2.9320834       1.5515918
  18 STRETCH   9 17                     2.0553099       1.0876233
  19 STRETCH   9 10                     2.9297905       1.5503785
  20 STRETCH   9 18                     2.0537588       1.0868025
  21 STRETCH  10 20                     2.0522142       1.0859850
  22 STRETCH  10 19                     2.0551471       1.0875371
  23 BEND      1  7 14                  1.8327569     105.0092344
  24 BEND      1  7  8                  1.9756258     113.1950223
  25 BEND      1  4  6                  1.1136859      63.8095005
  26 BEND      1  7  6                  1.2457579      71.3766694
  27 BEND      1  7  6                  1.2457579      71.3766694
  28 BEND      2  1  3                  2.2872110     131.0475372
  29 BEND      2  1  7                  1.8466776     105.8068306
  30 BEND      2  1  4                  1.8248649     104.5570544
  31 BEND      3  1  4                  1.8532901     106.1857030
  32 BEND      3  1  7                  1.8570561     106.4014774
  33 BEND      4  6  7                  2.2076010     126.4862197
  34 BEND      4  6  5                  1.5123686      86.6523404
  35 BEND      4  6 10                  1.5902905      91.1169367
  36 BEND      4  1  7                  1.7137207      98.1889632
  37 BEND      4  6  7                  2.2076010     126.4862197
  38 BEND      5  6  7                  2.1058577     120.6567563
  39 BEND      5  6  7                  2.1058577     120.6567563
  40 BEND      5  6 10                  2.0952138     120.0469062
  41 BEND      6  7 14                  2.1197995     121.4555670
  42 BEND      6 10 19                  1.9281412     110.4743554
  43 BEND      6 10 20                  1.9383445     111.0589612
  44 BEND      6 10  9                  1.8216554     104.3731670
  45 BEND      6  7  8                  1.9488298     111.6597204
  46 BEND      6  5 13                  1.9477001     111.5949963
  47 BEND      6  5 11                  1.9304882     110.6088277
  48 BEND      6  7 14                  2.1197995     121.4555670
  49 BEND      6  5 12                  1.8920407     108.4059454
  50 BEND      6  7  8                  1.9488298     111.6597204
  51 BEND      7  6 10                  1.8871115     108.1235263
  52 BEND      7  6 10                  1.8871115     108.1235263
  53 BEND      7  8  9                  1.8043624     103.3823522
  54 BEND      7  8 15                  1.9357723     110.9115808
  55 BEND      7  8 16                  1.9639153     112.5240554
  56 BEND      8  9 10                  1.8353275     105.1565204
  57 BEND      8  9 17                  1.9095360     109.4083546
  58 BEND      8  7 14                  2.1258289     121.8010237
  59 BEND      8  9 18                  1.9680632     112.7617153
  60 BEND      9 10 19                  1.9620726     112.4184801
  61 BEND      9 10 20                  1.9315411     110.6691525
  62 BEND      9  8 15                  1.9487221     111.6535530
  63 BEND      9  8 16                  1.9373003     110.9991297
  64 BEND     10  9 18                  1.9551188     112.0200581
  65 BEND     10  9 17                  1.9114745     109.5194190
  66 BEND     11  5 13                  1.9019503     108.9737259
  67 BEND     11  5 12                  1.8920268     108.4051495
  68 BEND     12  5 13                  1.8985616     108.7795691
  69 BEND     15  8 16                  1.8750150     107.4304443
  70 BEND     17  9 18                  1.8837050     107.9283455
  71 BEND     19 10 20                  1.8827458     107.8733883
  72 TORSION   1  7  8 16               0.4314957      24.7228810
  73 TORSION   1  4  6  7              -0.0654233      -3.7484793
  74 TORSION   1  4  6 10              -2.0492558    -117.4137067
  75 TORSION   1  4  6  5               2.1389344     122.5519130
  76 TORSION   1  7  6 10               1.9006426     108.8988016
  77 TORSION   1  7  6  5              -1.8736247    -107.3507851
  78 TORSION   1  7  6  4               0.0589639       3.3783844
  79 TORSION   1  7  8  9              -1.6599419     -95.1076628
  80 TORSION   1  7  8 15               2.5323777     145.0945557
  81 TORSION   2  1  7 14               2.2830181     130.8073007
  82 TORSION   2  1  4  6               1.9344296     110.8346506
  83 TORSION   2  1  7  8              -0.0750801      -4.3017705
  84 TORSION   2  1  7  6              -1.9289820    -110.5225255
  85 TORSION   3  1  7 14              -0.2064116     -11.8265161
  86 TORSION   3  1  4  6              -1.8803462    -107.7358993
  87 TORSION   3  1  7  8              -2.5645098    -146.9355874
  88 TORSION   3  1  7  6               1.8647736     106.8436576
  89 TORSION   4  6 10 19              -1.6370622     -93.7967563
  90 TORSION   4  6 10 20               0.4513651      25.8613165
  91 TORSION   4  6 10  9               2.5332476     145.1443978
  92 TORSION   4  6  5 13               0.6772909      38.8059129
  93 TORSION   4  6  5 11              -1.4432127     -82.6899988
  94 TORSION   4  6  5 12               2.7677843     158.5823605
  95 TORSION   4  6  7  8              -1.8305723    -104.8840649
  96 TORSION   4  1  7  8               1.8052899     103.4354918
  97 TORSION   4  6  7 14               1.7442245      99.9367042
  98 TORSION   4  1  7 14              -2.1197973    -121.4554370
  99 TORSION   4  1  7  6              -0.0486120      -2.7852632
 100 TORSION   5  6 10 19              -0.1224906      -7.0181961
 101 TORSION   5  6 10 20               1.9659367     112.6398767
 102 TORSION   5  6 10  9              -2.2353661    -128.0770419
 103 TORSION   5  6  7  8               2.5200245     144.3867656
 104 TORSION   5  6  7 14              -0.1883641     -10.7924653
 105 TORSION   6  7  8  9              -0.2942318     -16.8582410
 106 TORSION   6  7  8 15              -2.3850975    -136.6560225
 107 TORSION   6  7  8 16               1.7972057     102.9723028
 108 TORSION   6 10  9 18              -2.5946503    -148.6625092
 109 TORSION   6 10  9 17               1.5991346      91.6236648
 110 TORSION   6 10  9  8              -0.4511141     -25.8469345
 111 TORSION   6  4  1  7               0.0361110       2.0690074
 112 TORSION   7  6  5 13               2.9659133     169.9343128
 113 TORSION   7  6  5 11               0.8454096      48.4384011
 114 TORSION   7  6  5 12              -1.2267787     -70.2892396
 115 TORSION   7  6 10  9               0.2781002      15.9339654
 116 TORSION   7  6 10 20              -1.8037824    -103.3491159
 117 TORSION   7  6 10 19               2.3909756     136.9928112
 118 TORSION   7  8  9 18               2.5875943     148.2582299
 119 TORSION   7  8  9 10               0.4524045      25.9208686
 120 TORSION   7  8  9 17              -1.5991598     -91.6251049
 121 TORSION   8  7  6 10               0.0111064       0.6363522
 122 TORSION   8  9 10 19              -2.5412766    -145.6044214
 123 TORSION   8  9 10 20               1.6353676      93.6996630
 124 TORSION   9  8  7 14               2.4124354     138.2223639
 125 TORSION  10  6  7 14              -2.6972821    -154.5428787
 126 TORSION  10  9  8 15               2.5343697     145.2086894
 127 TORSION  10  9  8 16              -1.6571787     -94.9493444
 128 TORSION  10  6  5 13              -0.8822273     -50.5479003
 129 TORSION  10  6  5 11              -3.0027310    -172.0438120
 130 TORSION  10  6  5 12               1.2082661      69.2285473
 131 TORSION  14  7  8 16              -1.7793124    -101.9470923
 132 TORSION  14  7  8 15               0.3215696      18.4245824
 133 TORSION  15  8  9 18              -1.6136258     -92.4539492
 134 TORSION  15  8  9 17               0.4828055      27.6627159
 135 TORSION  16  8  9 18               0.4780111      27.3880169
 136 TORSION  16  8  9 17               2.5744424     147.5046821
 137 TORSION  17  9 10 20              -2.5975689    -148.8297378
 138 TORSION  17  9 10 19              -0.4910278     -28.1338221
 139 TORSION  18  9 10 20              -0.5081685     -29.1159117
 140 TORSION  18  9 10 19               1.5983726      91.5800039

     ------------------------------------------
     THE POINT GROUP IS C1 , NAXIS= 0, ORDER= 1
     ------------------------------------------

     DIMENSIONS OF THE SYMMETRY SUBSPACES ARE
 A   =   48

 ..... DONE SETTING UP THE RUN .....
 STEP CPU TIME =     0.08 TOTAL CPU TIME =          0.1 (      0.0 MIN)
 TOTAL WALL CLOCK TIME=          0.1 SECONDS, CPU UTILIZATION IS    80.00%


          -----------------------------
          STATIONARY POINT LOCATION RUN
          -----------------------------

 OBTAINING INITIAL HESSIAN, HESS=CALC    

     ---------------------------------
     HESSIAN MATRIX CONTROL PARAMETERS
     ---------------------------------
     METHOD=ANALYTIC   NVIB  =       2   VIBSIZ= 0.01000
     RDHESS=       F   PURIFY=       F   PRTIFC=       F
     VIBANL=       F   DECOMP=       F   PROJCT=       F
     SCLFAC= 1.00000   PRTSCN=       F   NPRT  =       0
     PULCOR=       F   NPUN  =       0   REDOVB=       T
     HSSTYP=GENERAL 
 Old integral subroutine is used

     ------------------------------
     CPHF RESPONSE SOLUTION OPTIONS
     ------------------------------
     POLAR  =       F     NWORD  =       0
     CPHF   =AO      

          ********************
          1 ELECTRON INTEGRALS
          ********************
 ...... END OF ONE-ELECTRON INTEGRALS ......
 STEP CPU TIME =     0.02 TOTAL CPU TIME =          0.1 (      0.0 MIN)
 TOTAL WALL CLOCK TIME=          0.1 SECONDS, CPU UTILIZATION IS    83.33%

          -------------
          GUESS OPTIONS
          -------------
          GUESS =HUCKEL            NORB  =       0          NORDER=       0
          MIX   =       F          PRTMO =       F          PUNMO =       F
          TOLZ  = 1.0E-08          TOLE  = 1.0E-05
          SYMDEN=       F          PURIFY=       F

 INITIAL GUESS ORBITALS GENERATED BY HUCKEL   ROUTINE.
 HUCKEL GUESS REQUIRES     39252 WORDS.

 SYMMETRIES FOR INITIAL GUESS ORBITALS FOLLOW.   BOTH SET(S).
    27 ORBITALS ARE OCCUPIED (    7 CORE ORBITALS).
     8=A        9=A       10=A       11=A       12=A       13=A       14=A   
    15=A       16=A       17=A       18=A       19=A       20=A       21=A   
    22=A       23=A       24=A       25=A       26=A       27=A       28=A   
    29=A       30=A       31=A       32=A       33=A       34=A       35=A   
    36=A       37=A   
 ...... END OF INITIAL ORBITAL SELECTION ......
 STEP CPU TIME =     0.02 TOTAL CPU TIME =          0.1 (      0.0 MIN)
 TOTAL WALL CLOCK TIME=          0.2 SECONDS, CPU UTILIZATION IS    80.00%

                    ----------------------
                    AO INTEGRAL TECHNOLOGY
                    ----------------------
     S,P,L SHELL ROTATED AXIS INTEGRALS, REPROGRAMMED BY
        KAZUYA ISHIMURA (IMS) AND JOSE SIERRA (SYNSTAR).
     S,P,D,L SHELL ROTATED AXIS INTEGRALS PROGRAMMED BY
        KAZUYA ISHIMURA (INSTITUTE FOR MOLECULAR SCIENCE).
     S,P,D,F,G SHELL TO TOTAL QUARTET ANGULAR MOMENTUM SUM 5,
        ERIC PROGRAM BY GRAHAM FLETCHER (ELORET AND NASA ADVANCED
        SUPERCOMPUTING DIVISION, AMES RESEARCH CENTER).
     S,P,D,F,G,L SHELL GENERAL RYS QUADRATURE PROGRAMMED BY
        MICHEL DUPUIS (PACIFIC NORTHWEST NATIONAL LABORATORY).

          --------------------
          2 ELECTRON INTEGRALS
          --------------------

 THE -PK- OPTION IS OFF, THE INTEGRALS ARE NOT IN SUPERMATRIX FORM.
 STORING   15000 INTEGRALS/RECORD ON DISK, USING 12 BYTES/INTEGRAL.
 TWO ELECTRON INTEGRAL EVALUATION REQUIRES   89734 WORDS OF MEMORY.
 SCHWARZ INEQUALITY OVERHEAD:      1164 INTEGRALS, T=        0.00
 II,JST,KST,LST =  1  1  1  1 NREC =         1 INTLOC =    1
 II,JST,KST,LST =  2  1  1  1 NREC =         1 INTLOC =    2
 II,JST,KST,LST =  3  1  1  1 NREC =         1 INTLOC =   34
 II,JST,KST,LST =  4  1  1  1 NREC =         1 INTLOC =  145
 II,JST,KST,LST =  5  1  1  1 NREC =         1 INTLOC =  320
 II,JST,KST,LST =  6  1  1  1 NREC =         1 INTLOC =  580
 II,JST,KST,LST =  7  1  1  1 NREC =         1 INTLOC =  900
 II,JST,KST,LST =  8  1  1  1 NREC =         1 INTLOC = 3907
 II,JST,KST,LST =  9  1  1  1 NREC =         1 INTLOC = 5110
 II,JST,KST,LST = 10  1  1  1 NREC =         1 INTLOC =14014
 II,JST,KST,LST = 11  1  1  1 NREC =         2 INTLOC = 1987
 II,JST,KST,LST = 12  1  1  1 NREC =         3 INTLOC = 6596
 II,JST,KST,LST = 13  1  1  1 NREC =         3 INTLOC =12200
 II,JST,KST,LST = 14  1  1  1 NREC =         6 INTLOC = 3432
 II,JST,KST,LST = 15  1  1  1 NREC =         6 INTLOC =12556
 II,JST,KST,LST = 16  1  1  1 NREC =        10 INTLOC =12360
 II,JST,KST,LST = 17  1  1  1 NREC =        11 INTLOC =13095
 II,JST,KST,LST = 18  1  1  1 NREC =        18 INTLOC = 2498
 II,JST,KST,LST = 19  1  1  1 NREC =        20 INTLOC =  721
 II,JST,KST,LST = 20  1  1  1 NREC =        22 INTLOC = 1557
 II,JST,KST,LST = 21  1  1  1 NREC =        24 INTLOC = 4325
 II,JST,KST,LST = 22  1  1  1 NREC =        26 INTLOC =10406
 II,JST,KST,LST = 23  1  1  1 NREC =        29 INTLOC = 3525
 II,JST,KST,LST = 24  1  1  1 NREC =        31 INTLOC =14471
 II,JST,KST,LST = 25  1  1  1 NREC =        34 INTLOC =13295
 II,JST,KST,LST = 26  1  1  1 NREC =        37 INTLOC =14589
 II,JST,KST,LST = 27  1  1  1 NREC =        41 INTLOC = 5192
 SCHWARZ INEQUALITY TEST SKIPPED        7908 INTEGRAL BLOCKS.
 TOTAL NUMBER OF NONZERO TWO-ELECTRON INTEGRALS =              659305
         44 INTEGRAL RECORDS WERE STORED ON DISK FILE  8.
  ...... END OF TWO-ELECTRON INTEGRALS .....
 STEP CPU TIME =     0.20 TOTAL CPU TIME =          0.3 (      0.0 MIN)
 TOTAL WALL CLOCK TIME=          0.3 SECONDS, CPU UTILIZATION IS    91.43%

          --------------------------
                 RHF SCF CALCULATION
          --------------------------

     NUCLEAR ENERGY =       303.1762805246
     MAXIT =   30     NPUNCH=    2
     EXTRAP=T  DAMP=F  SHIFT=F  RSTRCT=F  DIIS=F  DEM=F  SOSCF=T
     DENSITY MATRIX CONV=  1.00E-05
     SOSCF WILL OPTIMIZE     567 ORBITAL ROTATIONS, SOGTOL=   0.250
     MEMORY REQUIRED FOR RHF ITERS=     49068 WORDS.

 ITER EX DEM     TOTAL ENERGY        E CHANGE  DENSITY CHANGE     ORB. GRAD
   1  0  0     -255.8118866038  -255.8118866038   0.325704378   0.000000000
          ---------------START SECOND ORDER SCF---------------
   2  1  0     -256.1492905893    -0.3374039855   0.097322980   0.022948950
   3  2  0     -256.1649575328    -0.0156669436   0.037503973   0.008713833
   4  3  0     -256.1671591632    -0.0022016304   0.005108923   0.001180553
   5  4  0     -256.1672115064    -0.0000523432   0.000990469   0.000359580
   6  5  0     -256.1672150577    -0.0000035513   0.000608874   0.000100875
   7  6  0     -256.1672157070    -0.0000006493   0.000199646   0.000041443
   8  7  0     -256.1672157587    -0.0000000517   0.000053141   0.000009378
   9  8  0     -256.1672157652    -0.0000000065   0.000011616   0.000003415
  10  9  0     -256.1672157656    -0.0000000004   0.000003928   0.000000729
  11 10  0     -256.1672157656    -0.0000000000   0.000001436   0.000000270

          -----------------
          DENSITY CONVERGED
          -----------------
     TIME TO FORM FOCK OPERATORS=       0.1 SECONDS (       0.0 SEC/ITER)
     TIME TO SOLVE SCF EQUATIONS=       0.1 SECONDS (       0.0 SEC/ITER)

 FINAL RHF ENERGY IS     -256.1672157656 AFTER  11 ITERATIONS

          ------------
          EIGENVECTORS
          ------------

                      1          2          3          4          5
                  -11.1076   -11.0643   -11.0609   -11.0528   -11.0511
                     A          A          A          A          A   
    1  B  1  S    0.000312  -0.000003   0.000000   0.000002  -0.000002
    2  B  1  S   -0.001986   0.000050   0.000044   0.000048   0.000013
    3  B  1  X   -0.000773   0.000020  -0.000031  -0.000020   0.000017
    4  B  1  Y   -0.001011   0.000025   0.000019  -0.000059   0.000013
    5  B  1  Z    0.001887  -0.000018  -0.000012  -0.000029   0.000006
    6  H  2  S    0.000062  -0.000022   0.000013   0.000038  -0.000003
    7  H  3  S    0.000100   0.000049  -0.000032  -0.000047   0.000001
    8  H  4  S   -0.001207  -0.000176  -0.000053   0.000014  -0.000045
    9  C  5  S   -0.002972   0.991946   0.002792   0.000219  -0.000126
   10  C  5  S   -0.005427   0.037765   0.000264  -0.000032  -0.000014
   11  C  5  X   -0.002581   0.000002   0.000050  -0.000017   0.000018
   12  C  5  Y    0.000585  -0.000086   0.000082   0.000027  -0.000010
   13  C  5  Z   -0.003022  -0.000251   0.000013  -0.000026  -0.000026
   14  C  6  S    0.992314   0.003937   0.003992   0.000527   0.000860
   15  C  6  S    0.034498  -0.005504  -0.005432   0.000204   0.000055
   16  C  6  X    0.001234   0.002683  -0.002990   0.000062  -0.000132
   17  C  6  Y   -0.001608  -0.000462  -0.002892  -0.000066   0.000014
   18  C  6  Z   -0.000080   0.003346  -0.000646  -0.000039   0.000040
   19  C  7  S    0.002418  -0.000498  -0.001091  -0.005061  -0.002564
   20  C  7  S   -0.006442   0.000119   0.000128  -0.005947  -0.000615
   21  C  7  X    0.001378  -0.000044  -0.000012  -0.004004  -0.000453
   22  C  7  Y   -0.003921  -0.000049  -0.000038  -0.000168  -0.000178
   23  C  7  Z    0.001464  -0.000080  -0.000059  -0.001416  -0.000038
   24  C  8  S   -0.000524  -0.000190  -0.004586   0.987036   0.098501
   25  C  8  S    0.000117  -0.000037  -0.000003   0.037685  -0.001802
   26  C  8  X    0.000010   0.000027   0.000171   0.000015  -0.001353
   27  C  8  Y   -0.000076  -0.000030  -0.000030   0.000264  -0.003723
   28  C  8  Z   -0.000048  -0.000019  -0.000103  -0.000185   0.001206
   29  C  9  S   -0.000658   0.000183  -0.015553  -0.097577   0.987044
   30  C  9  S    0.000097   0.000020  -0.006105  -0.009218   0.036335
   31  C  9  X    0.000102  -0.000017   0.003407   0.001128   0.000291
   32  C  9  Y    0.000169   0.000000  -0.002347   0.003764   0.000385
   33  C  9  Z    0.000112  -0.000027   0.000301  -0.001238  -0.000419
   34  C 10  S   -0.002998  -0.002794   0.991828   0.002988   0.016931
   35  C 10  S   -0.005424   0.000046   0.037185   0.000724  -0.004934
   36  C 10  X    0.002828  -0.000036  -0.000095   0.000439  -0.003534
   37  C 10  Y    0.002707   0.000060   0.000081  -0.000097   0.002180
   38  C 10  Z    0.000745  -0.000107   0.000020  -0.000103  -0.000278
   39  H 11  S    0.000037  -0.006984  -0.000071  -0.000021  -0.000000
   40  H 12  S   -0.000080  -0.007000  -0.000025   0.000006   0.000004
   41  H 13  S    0.000027  -0.006948  -0.000068  -0.000004  -0.000012
   42  H 14  S    0.000093  -0.000117  -0.000072   0.000140  -0.000025
   43  H 15  S   -0.000050  -0.000009  -0.000074  -0.006981  -0.000568
   44  H 16  S    0.000032   0.000008   0.000050  -0.006947  -0.000620
   45  H 17  S   -0.000018   0.000011   0.000178   0.000768  -0.007008
   46  H 18  S   -0.000112   0.000008   0.000230   0.000816  -0.006931
   47  H 19  S    0.000059  -0.000170  -0.007002  -0.000137   0.000001
   48  H 20  S    0.000034   0.000036  -0.006999  -0.000012  -0.000041

                      6          7          8          9         10
                  -11.0279    -7.3792    -1.1043    -0.9852    -0.9310
                     A          A          A          A          A   
    1  B  1  S    0.000387   0.990872  -0.017861  -0.012533   0.018409
    2  B  1  S   -0.002550   0.036363   0.033479   0.026128  -0.038437
    3  B  1  X   -0.001754   0.000443   0.011600   0.002555  -0.014538
    4  B  1  Y    0.001063  -0.000587   0.001096   0.003599   0.010029
    5  B  1  Z    0.001402  -0.000184  -0.014341  -0.013907   0.012816
    6  H  2  S    0.000308  -0.006341   0.008965   0.003091  -0.012142
    7  H  3  S    0.000309  -0.006361   0.007384   0.008863  -0.012594
    8  H  4  S    0.000080  -0.002515   0.013274   0.017834   0.004338
    9  C  5  S    0.000539   0.000005  -0.057140  -0.146691  -0.027924
   10  C  5  S    0.000242   0.000119   0.153043   0.410324   0.080143
   11  C  5  X    0.000026  -0.000044   0.029478   0.027078   0.004667
   12  C  5  Y    0.000065  -0.000018  -0.006436  -0.009884   0.020563
   13  C  5  Z    0.000035  -0.000004   0.031038   0.029585  -0.003454
   14  C  6  S   -0.001741   0.000398  -0.132080  -0.101459   0.002360
   15  C  6  S   -0.006759  -0.002215   0.352906   0.289641  -0.005377
   16  C  6  X   -0.001851   0.001139   0.054538  -0.067252   0.014052
   17  C  6  Y    0.004111   0.000484  -0.035459  -0.022191   0.155084
   18  C  6  Z   -0.000550  -0.001820   0.010056  -0.064734  -0.028451
   19  C  7  S    0.992124   0.000458  -0.111397  -0.018440   0.130040
   20  C  7  S    0.035803  -0.002572   0.284064   0.051550  -0.367367
   21  C  7  X   -0.000468   0.001560   0.010108  -0.081585  -0.027207
   22  C  7  Y    0.001684  -0.000125   0.076374   0.038164  -0.002463
   23  C  7  Z   -0.000729  -0.002014  -0.008050  -0.036885  -0.006503
   24  C  8  S    0.006264   0.000016  -0.089737   0.097507   0.103006
   25  C  8  S   -0.005325   0.000121   0.234718  -0.270833  -0.296720
   26  C  8  X    0.003872   0.000075  -0.032657  -0.025126   0.061130
   27  C  8  Y    0.000213  -0.000101   0.034717  -0.042225   0.051450
   28  C  8  Z    0.001426   0.000058  -0.024330   0.010133   0.006859
   29  C  9  S    0.002136  -0.000007  -0.090345   0.115480  -0.068158
   30  C  9  S    0.000110   0.000054   0.235375  -0.321856   0.195636
   31  C  9  X    0.000245  -0.000026  -0.049295   0.012825  -0.030064
   32  C  9  Y    0.000069   0.000008  -0.013526   0.028297   0.101264
   33  C  9  Z    0.000169   0.000024   0.001946  -0.010133  -0.023249
   34  C 10  S    0.001231   0.000012  -0.102847   0.028172  -0.147848
   35  C 10  S    0.000154   0.000083   0.271168  -0.076408   0.427352
   36  C 10  X   -0.000065  -0.000051  -0.007095  -0.080208   0.023952
   37  C 10  Y    0.000123   0.000163  -0.056536   0.008031   0.019125
   38  C 10  Z   -0.000108   0.000004  -0.004120  -0.019987  -0.006490
   39  H 11  S   -0.000032  -0.000297   0.029615   0.104146   0.012683
   40  H 12  S   -0.000073  -0.000049   0.031848   0.104252   0.024325
   41  H 13  S   -0.000103   0.000106   0.028185   0.099597   0.031970
   42  H 14  S   -0.006793  -0.000169   0.052294   0.020709  -0.108316
   43  H 15  S   -0.000019  -0.000053   0.042274  -0.068048  -0.087299
   44  H 16  S   -0.000086  -0.000350   0.043836  -0.066557  -0.080528
   45  H 17  S   -0.000038  -0.000017   0.047282  -0.080348   0.055985
   46  H 18  S   -0.000145   0.000000   0.042047  -0.081229   0.059725
   47  H 19  S   -0.000078  -0.000051   0.051281  -0.012006   0.132916
   48  H 20  S    0.000013  -0.000268   0.051743  -0.020779   0.120248

                     11         12         13         14         15
                   -0.8817    -0.7654    -0.6852    -0.6499    -0.6205
                     A          A          A          A          A   
    1  B  1  S    0.022945  -0.017932  -0.004378  -0.150021  -0.042847
    2  B  1  S   -0.049729   0.040016   0.012244   0.373889   0.109523
    3  B  1  X   -0.016441   0.000014   0.003796   0.010126  -0.040551
    4  B  1  Y   -0.000286  -0.009385   0.038752  -0.014079  -0.010122
    5  B  1  Z    0.016454  -0.020498  -0.004921   0.008420  -0.015431
    6  H  2  S   -0.015745   0.003852   0.007408   0.204327   0.030995
    7  H  3  S   -0.012848   0.023225  -0.013949   0.192878   0.086574
    8  H  4  S   -0.011399  -0.005362   0.045160   0.091560   0.057305
    9  C  5  S   -0.145955   0.013122   0.026021  -0.004857   0.025983
   10  C  5  S    0.426840  -0.040988  -0.080894   0.016018  -0.085262
   11  C  5  X   -0.038519   0.007261   0.099417  -0.124695   0.132989
   12  C  5  Y    0.008136  -0.054560   0.025057  -0.010467   0.005974
   13  C  5  Z   -0.051078   0.024098   0.132251   0.046571   0.223140
   14  C  6  S    0.068671  -0.023596  -0.117571   0.014197  -0.049386
   15  C  6  S   -0.208705   0.072594   0.399487  -0.044758   0.181731
   16  C  6  X   -0.122245  -0.030311   0.019884  -0.129797  -0.196539
   17  C  6  Y    0.050996  -0.177213   0.072370  -0.023144   0.080993
   18  C  6  Z   -0.110171   0.003806   0.010286   0.142922  -0.130433
   19  C  7  S    0.071275  -0.041987   0.101215   0.016134   0.022894
   20  C  7  S   -0.202990   0.126020  -0.331953  -0.049286  -0.073305
   21  C  7  X    0.068610  -0.137377   0.020716  -0.116353  -0.134539
   22  C  7  Y   -0.067287   0.050510   0.268399  -0.000425  -0.149803
   23  C  7  Z    0.019864  -0.074809   0.046875   0.134079  -0.071598
   24  C  8  S   -0.085404   0.107721  -0.027928   0.000799  -0.010557
   25  C  8  S    0.250559  -0.334864   0.088633  -0.001873   0.032142
   26  C  8  X    0.081977  -0.000349   0.106090   0.020766   0.207909
   27  C  8  Y    0.019927   0.125882   0.090231   0.030994  -0.196651
   28  C  8  Z    0.007092  -0.072958   0.049350   0.182636  -0.013448
   29  C  9  S   -0.082602  -0.122942  -0.004932  -0.008168   0.001245
   30  C  9  S    0.243530   0.384298   0.016960   0.026113  -0.008923
   31  C  9  X    0.057715   0.116449   0.004828   0.062473   0.216848
   32  C  9  Y   -0.061662   0.057062  -0.129877   0.069014  -0.000884
   33  C  9  Z    0.015206  -0.052614   0.033180   0.178785  -0.108294
   34  C 10  S    0.070099   0.082413   0.053425   0.000005   0.005555
   35  C 10  S   -0.206636  -0.258538  -0.171397  -0.000248  -0.019790
   36  C 10  X    0.069452   0.118599  -0.134591   0.006945  -0.083394
   37  C 10  Y    0.003019  -0.097743  -0.195834   0.075968   0.163740
   38  C 10  Z   -0.003362  -0.005259  -0.010849   0.197069  -0.168001
   39  H 11  S    0.136984   0.008114  -0.094672   0.085314  -0.100357
   40  H 12  S    0.138768  -0.019519  -0.078249  -0.073456  -0.128760
   41  H 13  S    0.139012  -0.048503  -0.045796   0.036345  -0.069055
   42  H 14  S   -0.054414   0.069841  -0.310305  -0.027888   0.113681
   43  H 15  S    0.090971  -0.153249   0.013626  -0.063276   0.218435
   44  H 16  S    0.079700  -0.163764   0.066017   0.135350   0.026574
   45  H 17  S    0.081497   0.189036  -0.008125  -0.096056   0.149361
   46  H 18  S    0.085437   0.174009  -0.014341   0.144156   0.053168
   47  H 19  S   -0.055644  -0.125802  -0.156071  -0.073195   0.169821
   48  H 20  S   -0.068516  -0.131466  -0.121892   0.155828  -0.041955

                     16         17         18         19         20
                   -0.5921    -0.5567    -0.5543    -0.5323    -0.4924
                     A          A          A          A          A   
    1  B  1  S   -0.131726   0.055777   0.012328  -0.030479   0.031100
    2  B  1  S    0.331560  -0.135660  -0.031176   0.077230  -0.075710
    3  B  1  X   -0.014424   0.011852  -0.030526  -0.018557   0.153052
    4  B  1  Y   -0.027925   0.037097   0.009424   0.009670   0.074656
    5  B  1  Z    0.067173  -0.050599  -0.041029   0.033128  -0.010913
    6  H  2  S    0.218286  -0.113780  -0.059422   0.059875   0.013784
    7  H  3  S    0.201194  -0.103642   0.005562   0.053112  -0.208815
[...]
 18   H            X -0.32274919  0.30495683 -0.00088585  0.00031283  0.00007635
                   Y  0.00408796  0.02453125  0.00054553 -0.00002426  0.00004296
                   Z  0.31759546 -0.33242794 -0.00021117 -0.00016953 -0.00017705
 19   H            X  0.04856679 -0.04802378 -0.00346977  0.00143563  0.00047138
                   Y -0.06061678  0.07937305 -0.00227536  0.00113899  0.00117680
                   Z -0.06097666  0.07255979  0.00067781 -0.00026207 -0.00057375
 20   H            X  0.00956165 -0.00958734 -0.00331156 -0.00014070  0.00011315
                   Y -0.07304807  0.08924400 -0.00328927  0.00231908  0.00179399
                   Z  0.06292142 -0.07204485 -0.00368004  0.00236016  0.00012336

 TRANS. SAYVETZ    X -0.00000016 -0.00000019  0.00000075 -0.00000003 -0.00000001
                   Y -0.00000002 -0.00000006  0.00000057  0.00000000 -0.00000001
                   Z -0.00000031 -0.00000031  0.00000076  0.00000001 -0.00000001
               TOTAL  0.00000035  0.00000037  0.00000121  0.00000003  0.00000002

   ROT. SAYVETZ    X  0.00008803  0.00013857 -0.00013324 -0.00009535 -0.00001590
                   Y -0.00018911 -0.00033164 -0.00000708  0.00008529 -0.00003187
                   Z  0.00016276  0.00010760  0.00011488  0.00003815  0.00000896
               TOTAL  0.00026458  0.00037519  0.00017607  0.00013350  0.00003673

                           51          52          53          54          55
       FREQUENCY:      3572.39     3618.93     3623.58     3628.80     3735.74  
        SYMMETRY:         A           A           A           A           A   
    REDUCED MASS:      1.03885     1.06548     1.06721     1.06961     1.11218
    IR INTENSITY:      0.00986     0.02520     0.05419     0.03864     0.01426

  1   B            X  0.00004998  0.00015226 -0.00005874 -0.00045339  0.00014282
                   Y  0.00016166 -0.00005255  0.00004743  0.00021469 -0.00037680
                   Z  0.00005740 -0.00012552 -0.00028683 -0.00013634 -0.00038811
  2   H            X  0.00030341  0.00123548  0.00220980  0.00077627  0.00231477
                   Y  0.00012173  0.00006685  0.00042474  0.00037672 -0.00018219
                   Z  0.00057375  0.00096517  0.00212506  0.00084413  0.00193868
  3   H            X -0.00083569  0.00002727 -0.00050590  0.00007743  0.00003258
                   Y -0.00072423  0.00022150 -0.00026832 -0.00041939  0.00019886
                   Z -0.00005425  0.00006157  0.00014135 -0.00009106  0.00006598
  4   H            X  0.00014842  0.00021448 -0.00045554 -0.00086907  0.00082634
                   Y -0.00193486  0.00030633 -0.00341883 -0.00514372  0.00044566
                   Z  0.00316145  0.00045235  0.00138761  0.00114728 -0.00115437
  5   C            X -0.02807747  0.00000459 -0.00015646 -0.00007352 -0.00003852
                   Y  0.00751379 -0.00005823 -0.00002089 -0.00006696 -0.00027148
                   Z -0.04317984 -0.00002929  0.00005142  0.00027125 -0.00014331
  6   C            X  0.00214546  0.00029881 -0.00027738 -0.00158838  0.00010137
                   Y -0.00037767  0.00052156 -0.00103217 -0.00147489 -0.00116030
                   Z  0.00164802  0.00008743 -0.00015295 -0.00052299  0.00043225
  7   C            X  0.00003541  0.00092406  0.00073783 -0.00042008  0.00691335
                   Y -0.00025759 -0.00165873 -0.00188256  0.00108917  0.01876797
                   Z  0.00016169  0.00027379 -0.00008589  0.00024247  0.00905506
  8   C            X  0.00005344 -0.02709497 -0.02608752  0.01163959  0.01836587
                   Y -0.00007800  0.03367265  0.03748055 -0.01752357 -0.02458133
                   Z  0.00003134 -0.01573769 -0.01879596  0.00933776 -0.07135272
  9   C            X  0.00008213  0.04875385 -0.03163476  0.03247771  0.00526957
                   Y  0.00003937  0.01325930 -0.01226917  0.00779079  0.01368817
                   Z  0.00000428 -0.01070773  0.00883911 -0.00924402  0.04108033
 10   C            X  0.00012690 -0.00085485 -0.00275603 -0.00770066  0.00185743
                   Y  0.00002166 -0.01156460  0.03711035  0.05880197  0.00091755
                   Z  0.00005412  0.00123007 -0.00195083 -0.00092018 -0.01059967
 11   H            X  0.36189692  0.00000255  0.00060440 -0.00000557  0.00164383
                   Y  0.36910988  0.00011762  0.00065986 -0.00014390  0.00165400
                   Z -0.02383205 -0.00015125  0.00002145  0.00020206 -0.00008115
 12   H            X -0.29148484 -0.00004764 -0.00000943  0.00102996 -0.00053877
                   Y  0.03201354  0.00000188 -0.00008096 -0.00022231  0.00007033
                   Z  0.56008363  0.00011175  0.00006904 -0.00207286  0.00080811
 13   H            X  0.23524293 -0.00002899  0.00046169 -0.00004511 -0.00076237
                   Y -0.48428120  0.00002583 -0.00080106  0.00060281  0.00155058
                   Z -0.05022882  0.00015884 -0.00003158  0.00011686  0.00007713
 14   H            X  0.00107700  0.00519462  0.00806918 -0.00612850 -0.08141295
                   Y  0.00306988  0.01279868  0.01771010 -0.01543824 -0.20284722
                   Z  0.00127162  0.00472838  0.00808880 -0.00669108 -0.10198788
 15   H            X -0.00031333  0.25681788  0.26346595 -0.11666608 -0.27877955
                   Y  0.00059734 -0.33705279 -0.34733691  0.15313907  0.36681262
                   Z  0.00050937 -0.22703813 -0.23571854  0.10480375  0.24347593
 16   H            X -0.00013007  0.03255822  0.03669637 -0.01740252  0.05376560
                   Y  0.00013851 -0.05417267 -0.05583672  0.02543666 -0.08118169
                   Z -0.00130855  0.40489349  0.43747483 -0.20307474  0.58916595
 17   H            X -0.00036259 -0.27208611  0.18304264 -0.17835816  0.13994024
                   Y  0.00002207  0.03134481 -0.02500084  0.02055275 -0.01851244
                   Z  0.00071268  0.45846259 -0.30608537  0.30437133 -0.23548280
 18   H            X -0.00062723 -0.27401367  0.17685376 -0.16134807 -0.20178734
                   Y -0.00048663 -0.19500986  0.12718245 -0.11544659 -0.14162365
                   Z -0.00084611 -0.32980765  0.21414816 -0.19723803 -0.23798950
 19   H            X -0.00008504  0.01234203 -0.03484810 -0.05195401 -0.00752038
                   Y -0.00076886  0.07829517 -0.23602489 -0.35030420 -0.04855093
                   Z  0.00105484 -0.09970363  0.30502737  0.45610572  0.06190523
 20   H            X -0.00015492 -0.02620456  0.08154174  0.12702939 -0.01588568
                   Y -0.00034300  0.05675103 -0.18482711 -0.29420303  0.03864092
                   Z -0.00020671  0.08451978 -0.27950083 -0.44698290  0.05889743

 TRANS. SAYVETZ    X -0.00000028 -0.00000003 -0.00000038  0.00000023  0.00000001
                   Y -0.00000036 -0.00000007 -0.00000004  0.00000024 -0.00000005
                   Z -0.00000062 -0.00000051 -0.00000016  0.00000041 -0.00000024
               TOTAL  0.00000077  0.00000052  0.00000041  0.00000053  0.00000024

   ROT. SAYVETZ    X -0.00000876  0.00002174  0.00132224  0.00043707 -0.00005217
                   Y  0.00001138  0.00142000 -0.00011985  0.00029605  0.00013644
                   Z -0.00002219 -0.00033587  0.00023672  0.00001707  0.00002305
               TOTAL  0.00002643  0.00145934  0.00134860  0.00052817  0.00014788

                           56          57          58          59          60
       FREQUENCY:      3738.50     3740.75     3745.26     3745.87     3770.95  
        SYMMETRY:         A           A           A           A           A   
    REDUCED MASS:      1.09757     1.11179     1.10829     1.10879     1.11073
    IR INTENSITY:      0.15108     0.04867     0.02242     0.01200     0.03324

  1   B            X -0.00100771  0.00012160 -0.00008297 -0.00002192  0.00012261
                   Y  0.00114464 -0.00005461  0.00016135 -0.00013476 -0.00005622
                   Z  0.00031434  0.00026410  0.00019827  0.00010111  0.00005200
  2   H            X  0.00049204 -0.00172905 -0.00059332 -0.00002859  0.00009478
                   Y  0.00156036 -0.00021534 -0.00012243 -0.00010020  0.00008977
                   Z  0.00143185 -0.00175751 -0.00008562  0.00041491  0.00019072
  3   H            X  0.00295880  0.00013601 -0.00025995  0.00100631 -0.00030483
                   Y  0.00175426  0.00012788 -0.00035069  0.00087551 -0.00018144
                   Z  0.00115711  0.00011082 -0.00028293  0.00060142  0.00006909
  4   H            X -0.00312066 -0.00002662 -0.00068004 -0.00032085 -0.00044217
                   Y -0.00152628  0.00308927 -0.00181854  0.00232939  0.00164827
                   Z  0.00787788 -0.00034273  0.00213395  0.00174161 -0.00086638
  5   C            X -0.00312405 -0.00292257  0.05546742  0.03647181 -0.02579641
                   Y  0.00131274  0.00012404 -0.01877879 -0.01361228 -0.08793368
                   Z  0.00321084  0.00242702 -0.04743179 -0.03143716  0.00525388
  6   C            X -0.00073916 -0.00039859 -0.00050462 -0.00009124  0.00014352
                   Y  0.00358430  0.00031279  0.00041457  0.00025701  0.00025895
                   Z -0.00178945  0.00012825 -0.00089141 -0.00044128  0.00014152
  7   C            X -0.02750897 -0.00232799 -0.00093424 -0.00158606 -0.00021649
                   Y -0.07029339 -0.00606997 -0.00220570 -0.00373699 -0.00007097
                   Z -0.03290437 -0.00298440 -0.00110498 -0.00183197 -0.00028894
  8   C            X  0.00916806 -0.00844536 -0.00314259  0.00493779 -0.00000311
                   Y -0.00800813  0.01054529  0.00394463 -0.00584764  0.00006849
                   Z -0.01938705  0.03440804  0.01233064 -0.01780927  0.00007816
  9   C            X  0.00197201  0.00655478  0.00312638 -0.00404750 -0.00002056
                   Y  0.00303578  0.01767927  0.01050571 -0.01427177  0.00002716
                   Z  0.00773790  0.05336385  0.03228634 -0.04406364  0.00001946
 10   C            X -0.00114877  0.01213779 -0.00723245  0.01146706 -0.00008927
                   Y  0.00089753  0.00168512  0.00000057  0.00049732 -0.00004753
                   Z  0.00424210 -0.06100168  0.03416491 -0.05559390  0.00163255
 11   H            X  0.00927293  0.01400294 -0.19200324 -0.12007589  0.51290550
                   Y  0.00951595  0.01409405 -0.19988247 -0.12568730  0.52425251
                   Z -0.00037608 -0.00053821  0.00958250  0.00634478 -0.03406924
 12   H            X  0.01781786  0.01427647 -0.27481895 -0.18140149  0.04447353
                   Y -0.00195045 -0.00154711  0.02835444  0.01858956 -0.00872479
                   Z -0.03408543 -0.02710864  0.52458349  0.34700425 -0.08564479
 13   H            X  0.01183108  0.00655126 -0.18607843 -0.12713467 -0.25368063
                   Y -0.02445620 -0.01380092  0.39216188  0.26772375  0.52519852
                   Z -0.00160635 -0.00116346  0.03703022  0.02545881  0.05493849
 14   H            X  0.31242392  0.02530381  0.00875634  0.01765248  0.00055082
                   Y  0.76695753  0.06310921  0.02311446  0.04147790  0.00180817
                   Z  0.38798049  0.03131336  0.01204512  0.02107010  0.00087260
 15   H            X -0.09579295  0.12933864  0.04725601 -0.06993648  0.00023076
                   Y  0.12277879 -0.17200055 -0.06294669  0.09288801 -0.00036928
                   Z  0.08078358 -0.11364421 -0.04161082  0.06140572 -0.00028346
 16   H            X  0.01515910 -0.02641733 -0.00960722  0.01364421 -0.00005541
                   Y -0.02222984  0.04302571  0.01614172 -0.02304950  0.00011493
                   Z  0.15552005 -0.29320950 -0.10625035  0.15188340 -0.00066385
 17   H            X  0.02376996  0.18798128  0.12243169 -0.16878329  0.00039086
                   Y -0.00379745 -0.01863532 -0.01363695  0.01883861 -0.00007089
                   Z -0.03967341 -0.31685559 -0.20062625  0.27579432 -0.00049440
 18   H            X -0.04098834 -0.26081660 -0.15500330  0.21062038  0.00010689
                   Y -0.02863225 -0.18605493 -0.10942211  0.14864336  0.00006773
                   Z -0.04874437 -0.30759474 -0.18288976  0.24855889  0.00005920
 19   H            X  0.00240536 -0.03880202  0.02054835 -0.03390660  0.00099948
                   Y  0.01541110 -0.26894962  0.14737797 -0.24187132  0.00619581
                   Z -0.02002833  0.34333727 -0.18882324  0.30952854 -0.00784898
 20   H            X  0.00935750 -0.10587557  0.06395816 -0.10252530  0.00275807
                   Y -0.02070795  0.24929758 -0.14787516  0.23796586 -0.00521515
                   Z -0.03061379  0.37092939 -0.21648166  0.34912963 -0.00822944

 TRANS. SAYVETZ    X -0.00000000  0.00000003  0.00000004  0.00000003 -0.00000004
                   Y  0.00000012  0.00000004 -0.00000002 -0.00000001 -0.00000011
                   Z  0.00000018  0.00000002  0.00000018 -0.00000031  0.00000004
               TOTAL  0.00000021  0.00000005  0.00000019  0.00000031  0.00000012

   ROT. SAYVETZ    X  0.00009834 -0.00002593 -0.00000339  0.00001739 -0.00001463
                   Y -0.00004907  0.00003517  0.00001765 -0.00003952  0.00000835
                   Z  0.00005249 -0.00015275  0.00003105 -0.00003010 -0.00002043
               TOTAL  0.00012179  0.00015887  0.00003588  0.00005263  0.00002648

 REFERENCE ON SAYVETZ CONDITIONS - A. SAYVETZ, J.CHEM.PHYS., 7, 383-389(1939).

 NOTE - THE MODES J,K ARE ORTHONORMALIZED ACCORDING TO
 SUM ON I   M(I) * (X(I,J)*X(I,K) + Y(I,J)*Y(I,K) + Z(I,J)*Z(I,K)) = DELTA(J,K)

  MODE FREQ(CM**-1)  SYMMETRY  RED. MASS  IR INTENS.
     1     708.077    A        1.853970    3.860429
     2       4.555    A        3.101104    0.018704
     3       3.205    A        2.824395    0.106319
     4       0.626    A        3.602081    0.026934
     5       0.002    A        4.805457    0.000000
     6       0.081    A        4.810951    0.000069
     7       0.666    A        3.768497    0.030814
     8      67.868    A        1.747872    0.039111
     9     212.186    A        1.864381    0.106283
    10     228.007    A        1.053414    0.007178
    11     325.475    A        2.144260    0.104604
    12     371.271    A        2.192682    0.183090
    13     443.608    A        2.292709    0.213014
    14     549.341    A        1.720580    0.303274
    15     599.150    A        1.904036    0.605333
    16     715.011    A        3.098534    0.426155
    17     745.074    A        2.269980    0.004253
    18     880.496    A        1.915804    0.029910
    19     934.918    A        1.880896    0.047466
    20    1000.872    A        1.748543    0.066468
    21    1026.844    A        1.657096    0.038527
    22    1065.540    A        1.472685    0.154784
    23    1095.717    A        2.149561    0.047614
    24    1131.715    A        1.671748    0.013799
    25    1173.857    A        1.417924    0.010591
    26    1214.761    A        1.348099    0.398204
    27    1243.362    A        1.379288    0.803595
    28    1266.358    A        1.530925    0.093350
    29    1324.144    A        1.865266    0.118213
    30    1366.445    A        1.342087    0.322549
    31    1417.025    A        1.518905    0.321327
    32    1454.860    A        1.162207    2.843914
    33    1475.711    A        1.222907    0.003476
    34    1492.044    A        1.241399    0.019928
    35    1509.997    A        1.431775    0.025262
    36    1529.502    A        1.102605    0.594143
    37    1550.455    A        1.072420    0.025268
    38    1610.103    A        1.915685    0.023722
    39    1621.489    A        1.884616    0.075571
    40    1636.958    A        1.605782    0.044503
    41    1707.944    A        1.295142    0.035382
    42    1774.360    A        2.150358    0.232642
    43    1797.355    A        1.094856    0.002577
    44    1800.082    A        1.086827    0.097122
    45    1810.336    A        1.323726    0.032775
    46    1820.810    A        1.109043    0.009178
    47    1838.013    A        1.118433    0.005274
    48    2896.207    A        1.058722    0.801445
    49    3156.782    A        1.063281    0.465973
    50    3309.905    A        1.134451    0.463356
    51    3572.387    A        1.038850    0.009863
    52    3618.934    A        1.065485    0.025201
    53    3623.581    A        1.067207    0.054188
    54    3628.804    A        1.069613    0.038638
    55    3735.740    A        1.112181    0.014255
    56    3738.497    A        1.097566    0.151077
    57    3740.747    A        1.111789    0.048667
    58    3745.264    A        1.108293    0.022420
    59    3745.868    A        1.108787    0.012005
    60    3770.949    A        1.110729    0.033242

     -------------------------------
     THERMOCHEMISTRY AT T=  298.15 K
     -------------------------------

 USING IDEAL GAS, RIGID ROTOR, HARMONIC NORMAL MODE APPROXIMATIONS.
 P=  1.01325E+05 PASCAL.
 ALL FREQUENCIES ARE SCALED BY   1.00000
 THE MOMENTS OF INERTIA ARE (IN AMU*BOHR**2)
            479.65398           731.40682           928.81475
 THE ROTATIONAL SYMMETRY NUMBER IS  1.0
 THE ROTATIONAL CONSTANTS ARE (IN GHZ)
      3.75914     2.46523     1.94128
   1 IMAGINARY FREQUENCY VIBRATION(S) IS(ARE) EXCLUDED
     FROM THE FOLLOWING THERMOCHEMICAL ANALYSIS.
      8 -     60 VIBRATIONAL MODES ARE USED IN THERMOCHEMISTRY.
 THE HARMONIC ZERO POINT ENERGY IS (SCALED BY   1.000)
        0.212126 HARTREE/MOLECULE    46556.365108 CM**-1/MOLECULE 
      133.111461 KCAL/MOL              556.938353 KJ/MOL

               Q               LN Q
 ELEC.     1.00000E+00       0.000000
 TRANS.    3.70351E+07      17.427377
 ROT.      2.04338E+05      12.227532
 VIB.      1.87957E+01       2.933630
 TOT.      1.42240E+14      32.588538

              E         H         G         CV        CP        S
           KJ/MOL    KJ/MOL    KJ/MOL   J/MOL-K   J/MOL-K   J/MOL-K
 ELEC.      0.000     0.000     0.000     0.000     0.000     0.000
 TRANS.     3.718     6.197   -43.201    12.472    20.786   165.684
 ROT.       3.718     3.718   -30.311    12.472    12.472   114.136
 VIB.     566.901   566.901   549.666    76.533    76.533    57.806
 TOTAL    574.338   576.817   476.153   101.476   109.790   337.627
 VIB. THERMAL CORRECTION E(T)-E(0) = H(T)-H(0) =      9962.699 J/MOL

              E         H         G         CV        CP        S
         KCAL/MOL  KCAL/MOL  KCAL/MOL CAL/MOL-K CAL/MOL-K CAL/MOL-K
 ELEC.      0.000     0.000     0.000     0.000     0.000     0.000
 TRANS.     0.889     1.481   -10.325     2.981     4.968    39.600
 ROT.       0.889     0.889    -7.245     2.981     2.981    27.279
 VIB.     135.493   135.493   131.373    18.292    18.292    13.816
 TOTAL    137.270   137.863   113.803    24.253    26.241    80.695
 VIB. THERMAL CORRECTION E(T)-E(0) = H(T)-H(0) =      2381.142 CAL/MOL
 ......END OF NORMAL COORDINATE ANALYSIS......
 STEP CPU TIME =     0.01 TOTAL CPU TIME =         75.6 (      1.3 MIN)
 TOTAL WALL CLOCK TIME=         76.3 SECONDS, CPU UTILIZATION IS    99.08%
               580000  WORDS OF DYNAMIC MEMORY USED
 EXECUTION OF GAMESS TERMINATED NORMALLY Mon Nov 15 06:01:53 2021
 DDI: 263640 bytes (0.3 MB / 0 MWords) used by master data server.

 ----------------------------------------
 CPU timing information for all processes
 ========================================
 0: 74.330 + 1.254 = 75.584
 ----------------------------------------
 ddikick.x: exited gracefully.
----- accounting info -----
Files used on the master node chemcompute-node-0.novalocal were:
-rw-r--r--. 1 chemcomp chemcomp     1545 Nov 15 06:00 /scratch/306693/342707.F05
-rw-rw-r--. 1 chemcomp chemcomp  8100720 Nov 15 06:01 /scratch/306693/342707.F08
-rw-rw-r--. 1 chemcomp chemcomp 85196800 Nov 15 06:01 /scratch/306693/342707.F10
-rw-rw-r--. 1 chemcomp chemcomp   564960 Nov 15 06:01 /scratch/306693/342707.F18
Mon Nov 15 06:01:56 UTC 2021
0.143u 0.107s 1:19.88 0.3%	0+0k 8+216io 0pf+0w
Finishing Up...
Looking for IR data...
Looking for Raman data...
vibramans not found
Looking for thermodynamics data...
Looking for UV-Vis data...
306693
