----- GAMESS execution script 'rungms' -----
This job is running on host chemcompute-node-0.novalocal
under operating system Linux at Mon Nov 15 05:50:52 UTC 2021
SLURM has assigned the following compute nodes to this run:
chemcompute-node-0
Available scratch disk space (Kbyte units) at beginning of the job is
Filesystem     1K-blocks     Used Available Use% Mounted on
/dev/sda1       62903276 16863492  46039784  27% /
GAMESS temporary binary files will be written to /scratch/306690
GAMESS supplementary output files will be written to /data/slurm/342704
Copying input file 342704.inp to your run's scratch directory...
The generated host list is
chemcompute-node-0.novalocal

 Distributed Data Interface kickoff program.
 Initiating 1 compute processes on 1 nodes to run the following command:
 /data/gamess-2019R1-ddi/gamess.00.x 342704 

          ******************************************************
          *         GAMESS VERSION = 30 JUN 2019 (R1)          *
          *             FROM IOWA STATE UNIVERSITY             *
          * M.W.SCHMIDT, K.K.BALDRIDGE, J.A.BOATZ, S.T.ELBERT, *
          *   M.S.GORDON, J.H.JENSEN, S.KOSEKI, N.MATSUNAGA,   *
          *          K.A.NGUYEN, S.J.SU, T.L.WINDUS,           *
          *       TOGETHER WITH M.DUPUIS, J.A.MONTGOMERY       *
          *         J.COMPUT.CHEM.  14, 1347-1363(1993)        *
          **************** 64 BIT LINUX VERSION ****************

  SINCE 1993, STUDENTS AND POSTDOCS WORKING AT IOWA STATE UNIVERSITY
  AND ALSO IN THEIR VARIOUS JOBS AFTER LEAVING ISU HAVE MADE IMPORTANT
  CONTRIBUTIONS TO THE CODE:
     IVANA ADAMOVIC, CHRISTINE AIKENS, YURI ALEXEEV, POOJA ARORA,
     ANDREY ASADCHEV, ROB BELL, PRADIPTA BANDYOPADHYAY, JONATHAN BENTZ,
     COLLEEN BERTONI, BRETT BODE, KURT BRORSEN, CALEB CARLIN, GALINA CHABAN,
     WEI CHEN, CHEOL HO CHOI, PAUL DAY, ALBERT DEFUSCO, NUWAN DESILVA,
     TIM DUDLEY, DMITRI FEDOROV, ALEX FINDLATER, GRAHAM FLETCHER, 
     MARK FREITAG, KURT GLAESEMANN, ANASTASIA GUNINA,
     DAN KEMP, GRANT MERRILL, NORIYUKI MINEZAWA, JONATHAN MULLIN,
     TAKESHI NAGATA, SEAN NEDD, HEATHER NETZLOFF, BOSILJKA NJEGIC, RYAN OLSON,
     MIKE PAK, BUU PHAM,
     SPENCER PRUITT, LUKE ROSKOP, JIM SHOEMAKER, LYUDMILA SLIPCHENKO,
     TONY SMITH, SAROM SOK LEANG, JIE SONG, TETSUYA TAKETSUGU, SIMON WEBB,
     PENG XU, SOOHAENG YOO, FEDERICO ZAHARIEV

  ADDITIONAL CODE HAS BEEN PROVIDED BY COLLABORATORS IN OTHER GROUPS:
     IOWA STATE UNIVERSITY:
          JOE IVANIC, AARON WEST, LAIMUTIS BYTAUTAS, KLAUS RUEDENBERG
     UNIVERSITY OF TOKYO: KIMIHIKO HIRAO, TAKAHITO NAKAJIMA,
          TAKAO TSUNEDA, MUNEAKI KAMIYA, SUSUMU YANAGISAWA,
          KIYOSHI YAGI, MAHITO CHIBA, SEIKEN TOKURA, NAOAKI KAWAKAMI
     UNIVERSITY OF AARHUS: FRANK JENSEN
     UNIVERSITY OF IOWA: VISVALDAS KAIRYS, HUI LI
     NATIONAL INST. OF STANDARDS AND TECHNOLOGY: WALT STEVENS, DAVID GARMER
     UNIVERSITY OF PISA: BENEDETTA MENNUCCI, JACOPO TOMASI
     UNIVERSITY OF MEMPHIS: HENRY KURTZ, PRAKASHAN KORAMBATH
     UNIVERSITY OF ALBERTA: TOBY ZENG, MARIUSZ KLOBUKOWSKI
     UNIVERSITY OF NEW ENGLAND: MARK SPACKMAN
     MIE UNIVERSITY: HIROAKI UMEDA
     NAT. INST. OF ADVANCED INDUSTRIAL SCIENCE AND TECHNOLOGY: KAZUO KITAURA
     MICHIGAN STATE UNIVERSITY:
          KAROL KOWALSKI, MARTA WLOCH, JEFFREY GOUR, JESSE LUTZ,
          WEI LI, JUN SHEN, J. EMILIANO DEUSTUA, PIOTR PIECUCH
     UNIVERSITY OF MINNESOTA:
          YINAN SHU
     UNIVERSITY OF SILESIA: MONIKA MUSIAL, STANISLAW KUCHARSKI
     FACULTES UNIVERSITAIRES NOTRE-DAME DE LA PAIX:
          OLIVIER QUINET, BENOIT CHAMPAGNE
     UNIVERSITY OF CALIFORNIA - SANTA BARBARA: BERNARD KIRTMAN
     INSTITUTE FOR MOLECULAR SCIENCE:
          KAZUYA ISHIMURA, MICHIO KATOUDA, AND SHIGERU NAGASE
     UNIVERSITY OF NOTRE DAME: ANNA POMOGAEVA, DAN CHIPMAN
     KYUSHU UNIVERSITY:
          HARUYUKI NAKANO,
          FENG LONG GU, JACEK KORCHOWIEC, MARCIN MAKOWSKI, AND YURIKO AOKI,
          HIROTOSHI MORI AND EISAKU MIYOSHI
     PENNSYLVANIA STATE UNIVERSITY:
          TZVETELIN IORDANOV, CHET SWALINA, JONATHAN SKONE,
          SHARON HAMMES-SCHIFFER
     WASEDA UNIVERSITY:
          MASATO KOBAYASHI, TOMOKO AKAMA, TSUGUKI TOUMA,
          TAKESHI YOSHIKAWA, YASUHIRO IKABATA, JUNJI SEINO,
          YUYA NAKAJIMA, HIROMI NAKAI
     NANJING UNIVERSITY: SHUHUA LI
     UNIVERSITY OF NEBRASKA:
          PEIFENG SU, DEJUN SI, NANDUN THELLAMUREGE, YALI WANG, HUI LI
     UNIVERSITY OF ZURICH: ROBERTO PEVERATI, KIM BALDRIDGE
     N. COPERNICUS UNIVERSITY AND JACKSON STATE UNIVERSITY:
          MARIA BARYSZ
     UNIVERSITY OF COPENHAGEN: Jimmy Kromann, CASPER STEINMANN
     TOKYO INSTITUTE OF TECHNOLOGY: HIROYA NAKATA
     NAGOYA UNIVERSITY: YOSHIO NISHIMOTO, STEPHAN IRLE
     MOSCOW STATE UNIVERSITY: VLADIMIR MIRONOV
     A.N.NESMEYANOV INSTITUTE OF ORGANOELEMENT COMPOUNDS OF RUSSIAN ACADEMY OF SCIENCES:
          IGOR S. GERASIMOV

 EXECUTION OF GAMESS BEGUN Mon Nov 15 05:50:52 2021

            ECHO OF THE FIRST FEW INPUT CARDS -
 INPUT CARD>!File created by the GAMESS Input Deck Generator Plugin for Avogadro            
 INPUT CARD> $BASIS GBASIS=STO NGAUSS=3 $END                                                
 INPUT CARD> $CONTRL SCFTYP=RHF RUNTYP=OPTIMIZE NZVAR=1 mult=1  ICHARG=0 $END               
 INPUT CARD> $STATPT hssend=.t. OPTTOL=0.0005 NSTEP=50 $END                                 
 INPUT CARD> $STATPT HESS=calc ihrep=5 $END                                                 
 INPUT CARD> $FORCE nvib=2 $END                                                             
 INPUT CARD> $ZMAT DLC=.t. auto=.t. nonvdw(1)=1,7,4,6,1,4 $END                              
 INPUT CARD> $ZMAT IFZMAT(1)=1,1,7,1,4,6,1,1,4 fvalue(1)=2.08,2.01,1.98 $END                
 INPUT CARD>                                                                                
 INPUT CARD> $DATA                                                                          
 INPUT CARD>Title                                                                           
 INPUT CARD>C1                                                                              
 INPUT CARD>B     5.0     0.48761    -0.88093     1.87254                                   
 INPUT CARD>H     1.0     0.97164    -0.91570     2.95153                                   
 INPUT CARD>H     1.0    -0.37853    -1.66570     1.68061                                   
 INPUT CARD>H     1.0     0.26383     0.91512     1.06188                                   
 INPUT CARD>C     6.0     0.49508     0.58287    -1.45972                                   
 INPUT CARD>C     6.0     1.53703     0.37169    -0.39256                                   
 INPUT CARD>C     6.0     1.76703    -0.81564     0.23489                                   
 INPUT CARD>C     6.0     3.17547    -0.75477     0.82258                                   
 INPUT CARD>C     6.0     3.79255     0.41391     0.05470                                   
 INPUT CARD>C     6.0     2.61337     1.36081    -0.06288                                   
 INPUT CARD>H     1.0    -0.13803    -0.32096    -1.58433                                   
 INPUT CARD>H     1.0     0.99701     0.80384    -2.42451                                   
 INPUT CARD>H     1.0    -0.15534     1.44093    -1.19100                                   
 INPUT CARD>H     1.0     1.27751    -1.71783    -0.18042                                   
 INPUT CARD>H     1.0     3.76136    -1.68794     0.68585                                   
 INPUT CARD>H     1.0     3.13047    -0.50175     1.90391                                   
 INPUT CARD>H     1.0     4.04880     0.06237    -0.97264                                   
 INPUT CARD>H     1.0     4.70596     0.84312     0.51805                                   
 INPUT CARD>H     1.0     2.74730     2.17272    -0.80875                                   
 INPUT CARD>H     1.0     2.41678     1.80022     0.94080                                   
 INPUT CARD> $END                                                                           
    1000000 WORDS OF MEMORY AVAILABLE

     BASIS OPTIONS
     -------------
     GBASIS=STO          IGAUSS=       3      POLAR=NONE    
     NDFUNC=       0     NFFUNC=       0     DIFFSP=       F
     NPFUNC=       0      DIFFS=       F     BASNAM=        


     RUN TITLE
     ---------
 Title                                                                           

 THE POINT GROUP OF THE MOLECULE IS C1      
 THE ORDER OF THE PRINCIPAL AXIS IS     0

 ATOM      ATOMIC                      COORDINATES (BOHR)
           CHARGE         X                   Y                   Z
 B           5.0     0.9214492889       -1.6647163144        3.5385875010
 H           1.0     1.8361333587       -1.7304220870        5.5775829445
 H           1.0    -0.7153179781       -3.1477165777        3.1758923922
 H           1.0     0.4985664073        1.7293260459        2.0066622318
 C           6.0     0.9355655420        1.1014645865       -2.7584708188
 C           6.0     2.9045655349        0.7023922524       -0.7418308337
 C           6.0     3.3392025121       -1.5413361046        0.4438777373
 C           6.0     6.0007681822       -1.4263084838        1.5544508030
 C           6.0     7.1668802947        0.7821764836        0.1033680115
 C           6.0     4.9385532045        2.5715580214       -0.1188259701
 H           1.0    -0.2608388781       -0.6065264530       -2.9939495741
 H           1.0     1.8840757070        1.5190373380       -4.5816595545
 H           1.0    -0.2935500349        2.7229628675       -2.2506636514
 H           1.0     2.4141438466       -3.2462279935       -0.3409443627
 H           1.0     7.1079397412       -3.1897440837        1.2960685687
 H           1.0     5.9157305128       -0.9481700143        3.5978682053
 H           1.0     7.6511225791        0.1178622099       -1.8380230847
 H           1.0     8.8929749092        1.5932657748        0.9789725479
 H           1.0     5.1916442061        4.1058454480       -1.5283158926
 H           1.0     4.5670519726        3.4019225176        1.7778542092

          INTERNUCLEAR DISTANCES (ANGS.)
          ------------------------------

                1 B          2 H          3 H          4 H          5 C     

   1 B       0.0000000    1.1830948 *  1.1844406 *  1.9831900 *  3.6396048  
   2 H       1.1830948 *  0.0000000    2.0001742 *  2.7246420 *  4.6831558  
   3 H       1.1844406 *  2.0001742 *  0.0000000    2.7305833 *  3.9599159  
   4 H       1.9831900 *  2.7246420 *  2.7305833 *  0.0000000    2.5538859 *
   5 C       3.6396048    4.6831558    3.9599159    2.5538859 *  0.0000000  
   6 C       2.7930301 *  3.6276682    3.4811438    2.0079218 *  1.5063490 *
   7 C       2.0792008 *  2.8324530 *  2.7232583 *  2.4370172 *  2.5387773 *
   8 C       2.8884120 *  3.0684187    3.7678807    3.3650326    3.7659879  
   9 C       3.9879545    4.2564093    4.9362202    3.7037127    3.6325368  
  10 C       3.6455595    4.1187914    4.5990201    2.6427378 *  2.6539603 *
  11 H       3.5573785    4.7073463    3.5392088    2.9481880 *  1.1105245 *
  12 H       4.6435522    5.6444014    4.9842500    3.5643865    1.1097663 *
  13 H       3.8973960    4.8973813    4.2364027    2.3510951 *  1.1097403 *
  14 H       2.3535056 *  3.2474728    2.4917100 *  3.0827394    2.7462749 *
  15 H       3.5744842    3.6758942    4.2577848    4.3760754    4.5198046  
  16 H       2.6701068 *  2.4350378 *  3.7037445    3.3066841    4.4085925  
  17 H       4.6547759    5.0817954    5.4430885    4.3809191    3.6245128  
  18 H       4.7541002    4.7917031    5.7877251    4.4758747    4.6594865  
  19 H       4.6497627    5.1798660    5.5408659    3.3538690    2.8326454 *
  20 H       3.4319676    3.6752804    4.5137211    2.3309346 *  3.3071692  

                6 C          7 C          8 C          9 C         10 C     

   1 B       2.7930301 *  2.0792008 *  2.8884120 *  3.9879545    3.6455595  
   2 H       3.6276682    2.8324530 *  3.0684187    4.2564093    4.1187914  
   3 H       3.4811438    2.7232583 *  3.7678807    4.9362202    4.5990201  
   4 H       2.0079218 *  2.4370172 *  3.3650326    3.7037127    2.6427378 *
   5 C       1.5063490 *  2.5387773 *  3.7659879    3.6325368    2.6539603 *
   6 C       0.0000000    1.3624779 *  2.3302281 *  2.2998249 *  1.4985176 *
   7 C       1.3624779 *  0.0000000    1.5273467 *  2.3763402 *  2.3541225 *
   8 C       2.3302281 *  1.5273467 *  0.0000000    1.5284765 *  2.3612866 *
   9 C       2.2998249 *  2.3763402 *  1.5284765 *  0.0000000    1.5168751 *
  10 C       1.4985176 *  2.3541225 *  2.3612866 *  1.5168751 *  0.0000000  
  11 H       2.1693100 *  2.6802096 *  4.1183357    4.3215637    3.5655802  
  12 H       2.1464380 *  3.2074997    4.2093404    3.7568034    2.9154985 *
  13 H       2.1552023 *  3.2894949    4.4687692    4.2652519    2.9907907 *
  14 H       2.1162344 *  1.1072755 *  2.3528166 *  3.3053023    3.3580295  
  15 H       3.2175593    2.2229765 *  1.1103011 *  2.1947885 *  3.3426568  
  16 H       2.9284335 *  2.1778713 *  1.1114489 *  2.1671089 *  2.7576775 *
  17 H       2.5963744 *  2.7268122 *  2.1571365 *  1.1156486 *  2.1387073 *
  18 H       3.3307018    3.3865873    2.2334705 *  1.1105099 *  2.2325805 *
  19 H       2.2094517 *  3.3136701    3.3785744    2.2206995 *  1.1106112 *
  20 H       2.1430135 *  2.7862533 *  2.6678756 *  2.1447078 *  1.1131497 *

               11 H         12 H         13 H         14 H         15 H     

   1 B       3.5573785    4.6435522    3.8973960    2.3535056 *  3.5744842  
   2 H       4.7073463    5.6444014    4.8973813    3.2474728    3.6758942  
   3 H       3.5392088    4.9842500    4.2364027    2.4917100 *  4.2577848  
   4 H       2.9481880 *  3.5643865    2.3510951 *  3.0827394    4.3760754  
   5 C       1.1105245 *  1.1097663 *  1.1097403 *  2.7462749 *  4.5198046  
   6 C       2.1693100 *  2.1464380 *  2.1552023 *  2.1162344 *  3.2175593  
   7 C       2.6802096 *  3.2074997    3.2894949    1.1072755 *  2.2229765 *
   8 C       4.1183357    4.2093404    4.4687692    2.3528166 *  1.1103011 *
   9 C       4.3215637    3.7568034    4.2652519    3.3053023    2.1947885 *
  10 C       3.5655802    2.9154985 *  2.9907907 *  3.3580295    3.3426568  
  11 H       0.0000000    1.8053790 *  1.8053433 *  2.4343300 *  4.7146149  
  12 H       1.8053790 *  0.0000000    1.8042564 *  3.3872466    4.8502513  
  13 H       1.8053433 *  1.8042564 *  0.0000000    3.6127684    5.3528434  
  14 H       2.4343300 *  3.3872466    3.6127684    0.0000000    2.6307467 *
  15 H       4.7146149    4.8502513    5.3528434    2.6307467 *  0.0000000  
  16 H       4.7836801    4.9991436    4.9141653    3.0424896    1.8134881 *
  17 H       4.2486059    3.4599316    4.4297745    3.3877386    2.4283319 *
  18 H       5.4073397    4.7346079    5.1875299    4.3359652    2.7067861 *
  19 H       3.8916698    2.7473675 *  3.0177725    4.2061218    4.2622579  
  20 H       4.1716592    3.7860047    3.3599794    3.8641618    3.7470195  

               16 H         17 H         18 H         19 H         20 H     

   1 B       2.6701068 *  4.6547759    4.7541002    4.6497627    3.4319676  
   2 H       2.4350378 *  5.0817954    4.7917031    5.1798660    3.6752804  
   3 H       3.7037445    5.4430885    5.7877251    5.5408659    4.5137211  
   4 H       3.3066841    4.3809191    4.4758747    3.3538690    2.3309346 *
   5 C       4.4085925    3.6245128    4.6594865    2.8326454 *  3.3071692  
   6 C       2.9284335 *  2.5963744 *  3.3307018    2.2094517 *  2.1430135 *
   7 C       2.1778713 *  2.7268122 *  3.3865873    3.3136701    2.7862533 *
   8 C       1.1114489 *  2.1571365 *  2.2334705 *  3.3785744    2.6678756 *
   9 C       2.1671089 *  1.1156486 *  1.1105099 *  2.2206995 *  2.1447078 *
  10 C       2.7576775 *  2.1387073 *  2.2325805 *  1.1106112 *  1.1131497 *
  11 H       4.7836801    4.2486059    5.4073397    3.8916698    4.1716592  
  12 H       4.9991436    3.4599316    4.7346079    2.7473675 *  3.7860047  
  13 H       4.9141653    4.4297745    5.1875299    3.0177725    3.3599794  
  14 H       3.0424896    3.3877386    4.3359652    4.2061218    3.8641618  
  15 H       1.8134881 *  2.4283319 *  2.7067861 *  4.2622579    3.7470195  
  16 H       0.0000000    3.0718238    2.4922785 *  3.8285942    2.5953805 *
  17 H       3.0718238    0.0000000    1.8065399 *  2.4848218 *  3.0569371  
  18 H       2.4922785 *  1.8065399 *  0.0000000    2.7137766 *  2.5169631 *
  19 H       3.8285942    2.4848218 *  2.7137766 *  0.0000000    1.8190451 *
  20 H       2.5953805 *  3.0569371    2.5169631 *  1.8190451 *  0.0000000  

  * ... LESS THAN  3.000


     ATOMIC BASIS SET
     ----------------
 THE CONTRACTED PRIMITIVE FUNCTIONS HAVE BEEN UNNORMALIZED
 THE CONTRACTED BASIS FUNCTIONS ARE NOW NORMALIZED TO UNITY

  SHELL TYPE  PRIMITIVE        EXPONENT          CONTRACTION COEFFICIENT(S)

 B         

      1   S       1            48.7911132    0.154328967295
      1   S       2             8.8873622    0.535328142282
      1   S       3             2.4052670    0.444634542185

      2   L       4             2.2369561   -0.099967229187    0.155916274999
      2   L       5             0.5198205    0.399512826089    0.607683718598
      2   L       6             0.1690618    0.700115468880    0.391957393099

 H         

      3   S       7             3.4252509    0.154328967295
      3   S       8             0.6239137    0.535328142282
      3   S       9             0.1688554    0.444634542185

 H         

      4   S      10             3.4252509    0.154328967295
      4   S      11             0.6239137    0.535328142282
      4   S      12             0.1688554    0.444634542185

 H         

      5   S      13             3.4252509    0.154328967295
      5   S      14             0.6239137    0.535328142282
      5   S      15             0.1688554    0.444634542185

 C         

      6   S      16            71.6168373    0.154328967295
      6   S      17            13.0450963    0.535328142282
      6   S      18             3.5305122    0.444634542185

      7   L      19             2.9412494   -0.099967229187    0.155916274999
      7   L      20             0.6834831    0.399512826089    0.607683718598
      7   L      21             0.2222899    0.700115468880    0.391957393099

 C         

      8   S      22            71.6168373    0.154328967295
      8   S      23            13.0450963    0.535328142282
      8   S      24             3.5305122    0.444634542185

      9   L      25             2.9412494   -0.099967229187    0.155916274999
      9   L      26             0.6834831    0.399512826089    0.607683718598
      9   L      27             0.2222899    0.700115468880    0.391957393099

 C         

     10   S      28            71.6168373    0.154328967295
     10   S      29            13.0450963    0.535328142282
     10   S      30             3.5305122    0.444634542185

     11   L      31             2.9412494   -0.099967229187    0.155916274999
     11   L      32             0.6834831    0.399512826089    0.607683718598
     11   L      33             0.2222899    0.700115468880    0.391957393099

 C         

     12   S      34            71.6168373    0.154328967295
     12   S      35            13.0450963    0.535328142282
     12   S      36             3.5305122    0.444634542185

     13   L      37             2.9412494   -0.099967229187    0.155916274999
     13   L      38             0.6834831    0.399512826089    0.607683718598
     13   L      39             0.2222899    0.700115468880    0.391957393099

 C         

     14   S      40            71.6168373    0.154328967295
     14   S      41            13.0450963    0.535328142282
     14   S      42             3.5305122    0.444634542185

     15   L      43             2.9412494   -0.099967229187    0.155916274999
     15   L      44             0.6834831    0.399512826089    0.607683718598
     15   L      45             0.2222899    0.700115468880    0.391957393099

 C         

     16   S      46            71.6168373    0.154328967295
     16   S      47            13.0450963    0.535328142282
     16   S      48             3.5305122    0.444634542185

     17   L      49             2.9412494   -0.099967229187    0.155916274999
     17   L      50             0.6834831    0.399512826089    0.607683718598
     17   L      51             0.2222899    0.700115468880    0.391957393099

 H         

     18   S      52             3.4252509    0.154328967295
     18   S      53             0.6239137    0.535328142282
     18   S      54             0.1688554    0.444634542185

 H         

     19   S      55             3.4252509    0.154328967295
     19   S      56             0.6239137    0.535328142282
     19   S      57             0.1688554    0.444634542185

 H         

     20   S      58             3.4252509    0.154328967295
     20   S      59             0.6239137    0.535328142282
     20   S      60             0.1688554    0.444634542185

 H         

     21   S      61             3.4252509    0.154328967295
     21   S      62             0.6239137    0.535328142282
     21   S      63             0.1688554    0.444634542185

 H         

     22   S      64             3.4252509    0.154328967295
     22   S      65             0.6239137    0.535328142282
     22   S      66             0.1688554    0.444634542185

 H         

     23   S      67             3.4252509    0.154328967295
     23   S      68             0.6239137    0.535328142282
     23   S      69             0.1688554    0.444634542185

 H         

     24   S      70             3.4252509    0.154328967295
     24   S      71             0.6239137    0.535328142282
     24   S      72             0.1688554    0.444634542185

 H         

     25   S      73             3.4252509    0.154328967295
     25   S      74             0.6239137    0.535328142282
     25   S      75             0.1688554    0.444634542185

 H         

     26   S      76             3.4252509    0.154328967295
     26   S      77             0.6239137    0.535328142282
     26   S      78             0.1688554    0.444634542185

 H         

     27   S      79             3.4252509    0.154328967295
     27   S      80             0.6239137    0.535328142282
     27   S      81             0.1688554    0.444634542185

 TOTAL NUMBER OF BASIS SET SHELLS             =   27
 NUMBER OF CARTESIAN GAUSSIAN BASIS FUNCTIONS =   48
 NUMBER OF ELECTRONS                          =   54
 CHARGE OF MOLECULE                           =    0
 SPIN MULTIPLICITY                            =    1
 NUMBER OF OCCUPIED ORBITALS (ALPHA)          =   27
 NUMBER OF OCCUPIED ORBITALS (BETA )          =   27
 TOTAL NUMBER OF ATOMS                        =   20
 THE NUCLEAR REPULSION ENERGY IS      301.8267444847

     $CONTRL OPTIONS
     ---------------
 SCFTYP=RHF          RUNTYP=OPTIMIZE     EXETYP=RUN     
 MPLEVL=       0     CITYP =NONE         CCTYP =NONE         VBTYP =NONE    
 DFTTYP=NONE         TDDFT =NONE    
 MULT  =       1     ICHARG=       0     NZVAR =       1     COORD =UNIQUE  
 PP    =NONE         RELWFN=NONE         LOCAL =NONE         NUMGRD=       F
 ISPHER=      -1     NOSYM =       0     MAXIT =      30     UNITS =ANGS    
 PLTORB=       F     MOLPLT=       F     AIMPAC=       F     FRIEND=        
 NPRINT=       7     IREST =       0     GEOM  =INPUT   
 NORMF =       0     NORMP =       0     ITOL  =      20     ICUT  =       9
 INTTYP=BEST         GRDTYP=BEST         QMTTOL= 1.0E-06

     $SYSTEM OPTIONS
     ---------------
  REPLICATED MEMORY=     1000000 WORDS (ON EVERY NODE).
 DISTRIBUTED MEMDDI=           0 MILLION WORDS IN AGGREGATE,
 MEMDDI DISTRIBUTED OVER   1 PROCESSORS IS           0 WORDS/PROCESSOR.
 TOTAL MEMORY REQUESTED ON EACH PROCESSOR=     1000000 WORDS.
 TIMLIM=      525600.00 MINUTES, OR     365.0 DAYS.
 PARALL= F  BALTYP=  DLB     KDIAG=    0  COREFL= F
 MXSEQ2=     300 MXSEQ3=     150  mem10=         0

          ----------------
          PROPERTIES INPUT
          ----------------

     MOMENTS            FIELD           POTENTIAL          DENSITY
 IEMOM =       1   IEFLD =       0   IEPOT =       0   IEDEN =       0
 WHERE =COMASS     WHERE =NUCLEI     WHERE =NUCLEI     WHERE =NUCLEI  
 OUTPUT=BOTH       OUTPUT=BOTH       OUTPUT=BOTH       OUTPUT=BOTH    
 IEMINT=       0   IEFINT=       0                     IEDINT=       0
                                                       MORB  =       0
          EXTRAPOLATION IN EFFECT
          SOSCF IN EFFECT
 ORBITAL PRINTING OPTION: NPREO=     1    48     2     1

     -------------------------------
     INTEGRAL TRANSFORMATION OPTIONS
     -------------------------------
     NWORD  =            0
     CUTOFF = 1.0E-09     MPTRAN =       0
     DIRTRF =       F     AOINTS =DUP     

          ----------------------
          INTEGRAL INPUT OPTIONS
          ----------------------
 NOPK  =       1 NORDER=       0 SCHWRZ=       T


 -----------------------------------------------
  STATISTICS ON AUTOMATIC COORDINATE GENERATION 
 -----------------------------------------------
  NUMBER OF USER SPECIFIED BONDS                             3
  NUMBER OF BONDS                                           21
  NUMBER OF ANGLES                                          43
  NUMBER OF TORSIONS                                        69
  NUMBER OF EXTRA COORD.                                     0
  NUMBER OF EXTRA COORD. FOR CONSTRAINTS                     0
  NUMBER OF CONSTRAINED COORD.                               3

  TOTAL NUMBER OF PRIMITIVES                               133
 -----------------------------------------------

   --- ENCODED Z MATRIX ---
 COORD  TYPE   I   J   K   L   M   N
    1      1    1   4
    2      1    1   7
    3      1    4   6
    4      1    1   3
    5      1    1   2
    6      1    5  13
    7      1    5  12
    8      1    5  11
    9      1    5   6
   10      1    6  10
   11      1    6   7
   12      1    7  14
   13      1    7   8
   14      1    8  16
   15      1    8  15
   16      1    8   9
   17      1    9  17
   18      1    9  10
   19      1    9  18
   20      1   10  20
   21      1   10  19
   22      2    1   7   6
   23      2    1   7   8
   24      2    1   4   6
   25      2    1   7  14
   26      2    2   1   3
   27      2    2   1   4
   28      2    2   1   7
   29      2    3   1   7
   30      2    3   1   4
   31      2    4   6   7
   32      2    4   6  10
   33      2    4   6   5
   34      2    4   1   7
   35      2    5   6  10
   36      2    5   6   7
   37      2    6   7  14
   38      2    6  10  19
   39      2    6  10  20
   40      2    6  10   9
   41      2    6   5  11
   42      2    6   5  13
   43      2    6   5  12
   44      2    6   7   8
   45      2    7   8  15
   46      2    7   8  16
   47      2    7   6  10
   48      2    7   8   9
   49      2    8   7  14
   50      2    8   9  18
   51      2    8   9  10
   52      2    8   9  17
   53      2    9  10  19
   54      2    9  10  20
   55      2    9   8  15
   56      2    9   8  16
   57      2   10   9  18
   58      2   10   9  17
   59      2   11   5  13
   60      2   11   5  12
   61      2   12   5  13
   62      2   15   8  16
   63      2   17   9  18
   64      2   19  10  20
   65      3    1   7   6  10
   66      3    1   7   8   9
   67      3    1   7   6   5
   68      3    1   7   8  15
   69      3    1   7   8  16
   70      3    1   4   6   7
   71      3    1   7   6   4
   72      3    1   4   6  10
   73      3    1   4   6   5
   74      3    2   1   4   6
   75      3    2   1   7   6
   76      3    2   1   7  14
   77      3    2   1   7   8
   78      3    3   1   4   6
   79      3    3   1   7   6
   80      3    3   1   7  14
   81      3    3   1   7   8
   82      3    4   1   7   6
   83      3    4   1   7   8
   84      3    4   6   5  11
   85      3    4   6   5  12
   86      3    4   6   5  13
   87      3    4   1   7  14
   88      3    4   6  10  19
   89      3    4   6  10  20
   90      3    4   6  10   9
   91      3    4   6   7   8
   92      3    4   6   7  14
   93      3    5   6   7   8
   94      3    5   6   7  14
   95      3    5   6  10  19
   96      3    5   6  10  20
   97      3    5   6  10   9
   98      3    6   4   1   7
   99      3    6   7   8   9
  100      3    6   7   8  15
  101      3    6   7   8  16
  102      3    6  10   9  18
  103      3    6  10   9  17
  104      3    6  10   9   8
  105      3    7   6  10  19
  106      3    7   6   5  11
  107      3    7   6   5  12
  108      3    7   6   5  13
  109      3    7   8   9  18
  110      3    7   8   9  10
  111      3    7   8   9  17
  112      3    7   6  10   9
  113      3    7   6  10  20
  114      3    8   9  10  19
  115      3    8   9  10  20
  116      3    8   7   6  10
  117      3    9   8   7  14
  118      3   10   6   7  14
  119      3   10   9   8  15
  120      3   10   9   8  16
  121      3   10   6   5  11
  122      3   10   6   5  12
  123      3   10   6   5  13
  124      3   14   7   8  16
  125      3   14   7   8  15
  126      3   15   8   9  17
  127      3   15   8   9  18
  128      3   16   8   9  17
  129      3   16   8   9  18
  130      3   17   9  10  20
  131      3   17   9  10  19
  132      3   18   9  10  20
  133      3   18   9  10  19

          INDEP./SYM. INTERNAL COORDINATES
          --------------------------------
 CRD  1=   1.0000 (  1)
 CRD  2=   1.0000 (  2)
 CRD  3=   1.0000 (  3)
 CRD  4=   0.3739 (  9)  0.2031 ( 10)  0.1807 ( 11)  0.1529 ( 13)  0.1484 ( 23)
          -0.1064 ( 26)  0.3735 ( 42) -0.1426 ( 43)  0.1224 ( 46) -0.1100 ( 58)
          -0.1590 ( 59) -0.1095 ( 61)  0.1274 ( 74) -0.1030 ( 78) -0.1396 ( 91)
          -0.2316 ( 93)  0.1138 ( 96)  0.2010 ( 97)  0.1348 ( 99)  0.1202 (100)
           0.1422 (112) -0.1790 (116) -0.1166 (121)
 CRD  5=   0.1712 (  9)  0.2849 ( 10)  0.1190 ( 21)  0.1532 ( 22)  0.1103 ( 24)
          -0.1433 ( 25)  0.1119 ( 27) -0.1589 ( 31)  0.1794 ( 32) -0.1057 ( 34)
           0.1826 ( 39) -0.1631 ( 40)  0.1382 ( 42) -0.1469 ( 52)  0.1458 ( 65)
          -0.2581 ( 66) -0.1647 ( 68) -0.1454 ( 69)  0.1627 ( 78)  0.1432 ( 84)
           0.1600 ( 85)  0.1365 ( 86) -0.1712 ( 88) -0.1830 ( 90) -0.1063 ( 99)
           0.1152 (109)  0.1283 (110)  0.1326 (115)  0.1095 (116)
 CRD  6=   0.1220 (  9) -0.2281 ( 10)  0.1492 ( 11)  0.1054 ( 15)  0.1405 ( 18)
          -0.1128 ( 19) -0.1483 ( 22)  0.1540 ( 26) -0.1485 ( 29)  0.1065 ( 31)
           0.1011 ( 34)  0.1379 ( 39) -0.1737 ( 40)  0.1042 ( 43)  0.1980 ( 44)
           0.1905 ( 46) -0.3353 ( 48) -0.1383 ( 49) -0.1532 ( 50)  0.2882 ( 51)
          -0.1096 ( 52)  0.1650 ( 53)  0.1419 ( 55) -0.1386 ( 62)  0.1151 ( 63)
           0.1020 ( 77)  0.1274 ( 78)  0.1119 ( 81)  0.1396 ( 83) -0.1444 (103)
          -0.1219 (104)
 CRD  7=   0.1062 (  5)  0.1318 (  7)  0.1171 ( 10)  0.2004 ( 11) -0.1557 ( 13)
           0.2148 ( 16)  0.1253 ( 21) -0.1614 ( 26)  0.1071 ( 28)  0.1632 ( 29)
           0.1098 ( 38) -0.1562 ( 40) -0.1089 ( 41) -0.3456 ( 42)  0.4842 ( 43)
           0.1211 ( 51)  0.1831 ( 59) -0.1511 ( 60) -0.1097 ( 65) -0.2008 ( 78)
           0.1012 (101)
 CRD  8=  -0.2385 ( 10)  0.3845 ( 13)  0.1269 ( 15)  0.3367 ( 16)  0.1321 ( 29)
          -0.1400 ( 37) -0.1199 ( 38)  0.1178 ( 40) -0.2180 ( 41)  0.2192 ( 42)
           0.1972 ( 45) -0.1605 ( 48)  0.1441 ( 49)  0.1148 ( 50)  0.1151 ( 56)
          -0.1175 ( 61) -0.1446 ( 72) -0.1173 ( 73) -0.1201 ( 75) -0.1238 ( 77)
          -0.1030 ( 78) -0.1293 ( 79) -0.1330 ( 81)  0.1163 ( 91) -0.1444 (109)
          -0.1138 (110) -0.1074 (111)
 CRD  9=  -0.1801 (  8) -0.2449 ( 10) -0.1149 ( 13) -0.3004 ( 16) -0.5645 ( 41)
           0.2792 ( 42)  0.2538 ( 43)  0.1274 ( 59)  0.1287 ( 60) -0.2228 ( 61)
           0.1078 ( 73)
 CRD 10=  -0.1256 ( 11) -0.1781 ( 16) -0.6337 ( 18) -0.1667 ( 19) -0.1560 ( 21)
          -0.1375 ( 42)  0.2077 ( 43)  0.1096 ( 46)  0.1299 ( 51) -0.1397 ( 53)
          -0.1463 ( 57) -0.1284 ( 58) -0.1147 ( 60)  0.1102 ( 63) -0.1088 ( 88)
           0.1073 ( 96)  0.1112 (111)  0.1226 (126) -0.1023 (129)
 CRD 11=  -0.1387 ( 11)  0.2324 ( 13) -0.4684 ( 16)  0.2268 ( 18)  0.1576 ( 29)
           0.1303 ( 41) -0.1957 ( 42)  0.1424 ( 45)  0.1025 ( 49) -0.1755 ( 50)
          -0.1281 ( 52) -0.1952 ( 55)  0.1174 ( 57)  0.1046 ( 68) -0.1487 ( 78)
          -0.1039 ( 89)  0.1691 (100)  0.1093 (102) -0.1261 (124)  0.1479 (127)
          -0.1459 (128) -0.1166 (130)  0.1130 (133)
 CRD 12=   0.1016 (  6)  0.1723 ( 10)  0.1600 ( 11)  0.1323 ( 12) -0.1169 ( 14)
          -0.1331 ( 16) -0.1760 ( 18) -0.1223 ( 19)  0.1199 ( 25)  0.1691 ( 29)
           0.1727 ( 42) -0.2185 ( 43)  0.1680 ( 45) -0.1346 ( 46)  0.1773 ( 51)
          -0.1603 ( 52) -0.1402 ( 54) -0.2262 ( 57)  0.1480 ( 60)  0.1247 ( 66)
           0.1636 ( 68)  0.1322 ( 69)  0.1111 ( 75) -0.2453 ( 78)  0.1009 ( 94)
          -0.1220 ( 97) -0.1018 (105) -0.1437 (109) -0.1268 (111) -0.1350 (112)
           0.1033 (115)  0.1132 (118)  0.1432 (119)  0.1320 (120)
 CRD 13=  -0.1047 (  4)  0.1741 (  5)  0.1685 (  9) -0.2004 ( 10) -0.1708 ( 11)
          -0.2303 ( 12) -0.2299 ( 13) -0.1422 ( 21) -0.1365 ( 26)  0.2946 ( 28)
          -0.1493 ( 38)  0.1148 ( 39)  0.1716 ( 41) -0.1453 ( 46)  0.1587 ( 50)
          -0.1180 ( 52)  0.1684 ( 56)  0.1376 ( 58) -0.1187 ( 60)  0.3195 ( 74)
           0.1008 ( 96) -0.1218 (102) -0.1407 (103)  0.1124 (114) -0.1276 (117)
           0.1161 (120)
 CRD 14=  -0.1051 (  4)  0.1960 (  5)  0.1023 ( 15) -0.1057 ( 17) -0.2066 ( 20)
           0.1331 ( 21)  0.2680 ( 28) -0.2473 ( 29)  0.1522 ( 38) -0.2139 ( 39)
          -0.1332 ( 50) -0.1357 ( 58)  0.2884 ( 74)  0.2893 ( 78)  0.1195 ( 84)
           0.1064 ( 85)  0.1090 ( 86) -0.1128 ( 89) -0.1091 ( 90)  0.1114 ( 99)
           0.1941 (102)  0.1847 (103)  0.1313 (104) -0.1500 (110)
 CRD 15=  -0.1410 (  4)  0.3723 ( 12) -0.2117 ( 14)  0.2639 ( 20)  0.1522 ( 26)
          -0.2660 ( 29)  0.1018 ( 43) -0.1244 ( 44)  0.1406 ( 50) -0.1615 ( 52)
          -0.1453 ( 57)  0.1602 ( 58)  0.1121 ( 66)  0.2828 ( 78) -0.1240 ( 83)
          -0.1100 ( 94)  0.1028 (107)  0.1060 (108) -0.1180 (111)  0.1006 (115)
          -0.1053 (118)  0.1127 (122)  0.1159 (123)
 CRD 16=  -0.1655 (  4)  0.1297 (  5)  0.2257 ( 12)  0.1082 ( 13)  0.1926 ( 14)
           0.3660 ( 17) -0.2702 ( 19)  0.1311 ( 28) -0.1087 ( 29)  0.1397 ( 38)
           0.1021 ( 45)  0.1022 ( 49) -0.1271 ( 50)  0.1562 ( 52)  0.1221 ( 74)
          -0.1208 ( 84) -0.1199 ( 85) -0.1243 ( 86) -0.1149 (101) -0.1149 (104)
          -0.1428 (106) -0.1419 (107) -0.1463 (108)  0.1223 (110) -0.2311 (114)
          -0.1903 (115)  0.2013 (119)  0.1229 (120) -0.1027 (123)
 CRD 17=  -0.1839 (  4)  0.1480 (  5)  0.3044 ( 12)  0.1641 ( 13) -0.3354 ( 17)
           0.2298 ( 19) -0.1689 ( 20)  0.1450 ( 28) -0.1303 ( 38) -0.1460 ( 45)
           0.1696 ( 46) -0.1395 ( 54)  0.1026 ( 55) -0.1307 ( 56) -0.1278 ( 58)
           0.1009 ( 74) -0.1070 ( 84) -0.1104 ( 85) -0.1077 ( 86)  0.1109 ( 87)
          -0.1237 (106) -0.1270 (107) -0.1243 (108)  0.1107 (111)  0.1307 (114)
           0.1308 (115) -0.1630 (119) -0.1869 (120) -0.1197 (121) -0.1230 (122)
          -0.1204 (123)
 CRD 18=  -0.1446 (  5) -0.2089 (  7) -0.1473 ( 10) -0.2412 ( 13) -0.1144 ( 14)
          -0.1302 ( 17) -0.1427 ( 20)  0.1493 ( 21)  0.1480 ( 41)  0.1617 ( 42)
          -0.1249 ( 45)  0.1585 ( 53)  0.1341 ( 55) -0.1719 ( 56) -0.1858 ( 59)
          -0.1093 ( 69) -0.1754 ( 72) -0.1353 ( 73) -0.1036 ( 76) -0.1210 ( 77)
          -0.1222 ( 79) -0.1856 ( 80) -0.2030 ( 81) -0.1015 ( 82) -0.1823 ( 83)
          -0.1649 ( 87)  0.1035 ( 91) -0.1116 ( 97) -0.1270 (100) -0.1490 (101)
           0.1160 (105)
 CRD 19=  -0.1015 (  6) -0.2031 ( 12) -0.2806 ( 14)  0.1938 ( 15) -0.1072 ( 21)
          -0.1066 ( 25)  0.1336 ( 26) -0.1222 ( 28)  0.1049 ( 38)  0.1182 ( 50)
          -0.1998 ( 53)  0.1349 ( 54) -0.1461 ( 74) -0.1655 ( 84) -0.1616 ( 85)
          -0.1559 ( 86) -0.1536 ( 88) -0.1141 ( 89) -0.1293 ( 92) -0.1256 ( 94)
          -0.1280 ( 95) -0.1843 (105) -0.1612 (106) -0.1573 (107) -0.1516 (108)
          -0.1263 (109) -0.1055 (111) -0.1449 (113)  0.1013 (117) -0.2261 (121)
          -0.2223 (122) -0.2165 (123)
 CRD 20=  -0.4060 (  6) -0.4123 (  7) -0.4359 (  8) -0.1333 (  9)  0.2084 ( 12)
           0.1802 ( 14) -0.1669 ( 15)  0.1411 ( 41)  0.1640 ( 42)  0.1843 ( 43)
          -0.1166 ( 55)  0.1097 ( 56) -0.1573 ( 59) -0.1656 ( 60) -0.1785 ( 61)
           0.1200 ( 68)  0.1194 ( 69)
 CRD 21=  -0.1057 (  4) -0.1270 (  5)  0.2285 (  6)  0.2012 (  7)  0.2269 (  8)
           0.1734 (  9)  0.1980 ( 12) -0.1243 ( 13)  0.1311 ( 14) -0.3852 ( 15)
           0.1478 ( 19) -0.1042 ( 21)  0.1010 ( 26)  0.1274 ( 54) -0.1628 ( 55)
           0.1386 ( 56)  0.1812 ( 68)  0.1866 ( 69) -0.1086 ( 72) -0.1404 ( 80)
          -0.1463 ( 81) -0.1078 ( 83) -0.1018 ( 87) -0.1063 ( 89)  0.1324 (100)
           0.1378 (101) -0.1169 (105) -0.1379 (113)  0.1266 (124)  0.1212 (125)
 CRD 22=   0.1351 (  4) -0.2151 (  6)  0.1767 (  7) -0.3832 ( 20)  0.2403 ( 21)
           0.2384 ( 26) -0.1277 ( 28) -0.1270 ( 29)  0.1017 ( 45) -0.1105 ( 46)
           0.1113 ( 53) -0.1977 ( 54) -0.1069 ( 55) -0.1121 ( 74)  0.1493 ( 78)
           0.1283 ( 88)  0.1813 ( 89)  0.2041 ( 95)  0.2571 ( 96)  0.1154 (105)
           0.1684 (113) -0.1242 (121)  0.1041 (130)  0.1001 (132)
 CRD 23=   0.5728 (  4)  0.6858 (  5) -0.1030 ( 15)  0.1972 ( 26) -0.1071 ( 30)
          -0.1105 ( 80) -0.1107 ( 81)
 CRD 24=  -0.3463 (  4)  0.1667 (  5) -0.2452 (  8) -0.3281 ( 14) -0.3263 ( 15)
           0.1144 ( 17)  0.1673 ( 21)  0.1774 ( 27) -0.2139 ( 30) -0.1002 ( 74)
          -0.1683 ( 75) -0.1719 ( 76) -0.1260 ( 77) -0.1236 ( 78) -0.1762 ( 79)
          -0.1797 ( 80) -0.1339 ( 81)  0.1496 ( 85)  0.1634 (107)
 CRD 25=  -0.1136 (  4) -0.2437 (  6) -0.3481 (  7)  0.5564 (  8) -0.1070 ( 15)
           0.1358 ( 20)  0.1882 ( 21) -0.1045 ( 41)  0.1931 ( 59)  0.1369 ( 60)
          -0.3273 ( 61) -0.1455 ( 85)  0.1963 ( 86) -0.1436 (107)  0.1982 (108)
          -0.1538 (122)  0.1880 (123)
 CRD 26=   0.5376 (  6) -0.5073 (  7)  0.1009 ( 15)  0.2851 ( 59) -0.3045 ( 60)
          -0.2205 ( 84)  0.1080 ( 85) -0.2209 (106)  0.1076 (107) -0.2294 (121)
 CRD 27=  -0.1299 (  6)  0.1484 (  8) -0.1268 ( 14)  0.3510 ( 17)  0.2312 ( 19)
          -0.5432 ( 20) -0.4602 ( 21) -0.1784 ( 64) -0.1369 (131)  0.1111 (132)
 CRD 28=  -0.1010 ( 12) -0.2655 ( 14) -0.1160 ( 15)  0.3606 ( 17)  0.4955 ( 19)
           0.2904 ( 20)  0.1247 ( 21) -0.1087 ( 50) -0.1459 ( 58)  0.1921 ( 63)
          -0.1241 (108)  0.1297 (111) -0.1036 (118)  0.2165 (126)  0.1445 (128)
           0.1390 (133)
 CRD 29=   0.2396 (  4) -0.1883 (  5)  0.1031 ( 12) -0.2295 ( 14) -0.3884 ( 15)
          -0.1108 ( 19)  0.2610 ( 21) -0.1558 ( 27)  0.1718 ( 30)  0.1053 ( 46)
          -0.1513 ( 62)  0.1326 ( 75)  0.1368 ( 76)  0.1464 ( 77)  0.1484 ( 79)
           0.1525 ( 80)  0.1622 ( 81) -0.1218 (120) -0.1167 (121) -0.1096 (125)
          -0.1921 (128) -0.1569 (129) -0.1059 (130) -0.1372 (132)
 CRD 30=  -0.4030 ( 14) -0.2427 ( 15) -0.2612 ( 17) -0.3390 ( 19) -0.3648 ( 21)
           0.1022 ( 45)  0.1350 ( 52) -0.1470 ( 62) -0.1177 ( 63) -0.1105 ( 64)
          -0.1000 ( 96)  0.1073 (103)  0.1238 (119)  0.1273 (124)  0.1149 (126)
           0.2045 (127)  0.2102 (130)  0.1392 (131)
 CRD 31=   0.2511 ( 12) -0.2060 ( 14)  0.2402 ( 15)  0.1091 ( 17)  0.1854 ( 20)
           0.1033 ( 25) -0.1023 ( 49)  0.1130 ( 57)  0.1041 ( 64)  0.1002 ( 65)
          -0.1319 ( 76) -0.1007 ( 87) -0.1288 ( 88)  0.1370 ( 92) -0.1166 (100)
          -0.1226 (101)  0.1046 (102)  0.1051 (103) -0.2037 (105)  0.1073 (107)
          -0.1052 (112) -0.1031 (113)  0.1257 (114)  0.1191 (116) -0.1081 (117)
           0.1977 (118) -0.1278 (121) -0.1484 (124) -0.1424 (125)  0.1165 (128)
           0.1179 (129)  0.1488 (130)  0.1946 (131)  0.1484 (132)  0.1941 (133)
 CRD 32=   0.1009 (  4)  0.1534 (  5) -0.1126 ( 10)  0.1844 ( 11)  0.1157 ( 12)
          -0.2895 ( 26)  0.2244 ( 27)  0.1847 ( 30)  0.1533 ( 35) -0.1128 ( 73)
          -0.2914 ( 75) -0.3612 ( 76) -0.2713 ( 77)  0.1968 ( 79)  0.1269 ( 80)
           0.2169 ( 81)  0.1152 (117)  0.1360 (124)  0.1315 (125)
 CRD 33=   0.1719 ( 14) -0.1630 ( 15)  0.3590 ( 17) -0.2750 ( 19)  0.1403 ( 20)
          -0.1009 ( 21) -0.1009 ( 45)  0.1407 (102)  0.1279 (103)  0.1002 (104)
          -0.1539 (109) -0.1005 (110) -0.1341 (111)  0.1813 (114)  0.1651 (115)
          -0.1828 (119) -0.1616 (120) -0.2163 (126) -0.2362 (127) -0.1951 (128)
          -0.2150 (129)  0.1928 (130)  0.2090 (131)  0.2057 (132)  0.2219 (133)
 CRD 34=   0.2309 (  6)  0.1594 (  7)  0.1939 (  8) -0.1057 ( 10) -0.2217 ( 11)
           0.2907 ( 12) -0.1534 ( 14)  0.1144 ( 15)  0.1593 ( 17) -0.1648 ( 19)
          -0.1596 ( 20)  0.1725 ( 21) -0.1457 ( 33)  0.1668 ( 41)  0.1718 ( 42)
           0.1707 ( 43)  0.1055 ( 47) -0.2045 ( 59) -0.1397 ( 60) -0.1775 ( 61)
          -0.1650 ( 74)  0.1068 ( 79)  0.1617 ( 80)  0.1029 ( 82)  0.1578 ( 87)
           0.1383 ( 88)  0.1268 ( 90) -0.1309 ( 91) -0.1213 ( 92)
 CRD 35=   0.1204 (  5)  0.1343 (  6)  0.1043 (  7)  0.2177 ( 10) -0.1901 ( 11)
          -0.3429 ( 12) -0.1277 ( 15)  0.1436 ( 21) -0.1148 ( 22) -0.1277 ( 24)
          -0.1098 ( 26)  0.1278 ( 30)  0.1610 ( 31) -0.1188 ( 35)  0.1131 ( 43)
          -0.1172 ( 56) -0.1515 ( 61) -0.1484 ( 64)  0.1173 ( 68) -0.1086 ( 72)
          -0.1090 ( 75) -0.1607 ( 77)  0.1301 ( 79)  0.1544 ( 80) -0.1354 ( 84)
          -0.1883 ( 85) -0.1221 ( 86)  0.1345 ( 88)  0.1158 ( 90) -0.1386 (101)
           0.1041 (103)  0.1138 (115) -0.1673 (124)  0.1751 (130)
 CRD 36=   0.1394 (  4)  0.1470 (  8) -0.1870 (  9)  0.1285 ( 11)  0.2260 ( 14)
          -0.2009 ( 15) -0.2023 ( 17)  0.1136 ( 19)  0.1340 ( 20) -0.1380 ( 21)
          -0.1079 ( 22) -0.1328 ( 25)  0.1327 ( 28)  0.1297 ( 32)  0.1130 ( 41)
           0.1273 ( 43) -0.1505 ( 60)  0.1230 ( 65)  0.1554 ( 74) -0.1490 ( 78)
          -0.2544 ( 92) -0.2363 ( 94)  0.1088 ( 95) -0.1691 (100) -0.1309 (101)
           0.1195 (102)  0.1236 (107) -0.1036 (109) -0.1172 (112)  0.1088 (116)
           0.1259 (117)
 CRD 37=   0.2210 (  4) -0.1242 (  6) -0.2314 (  8)  0.3040 (  9)  0.1036 ( 10)
          -0.1296 ( 11)  0.1192 ( 12)  0.1190 ( 17) -0.1543 ( 19) -0.1077 ( 20)
           0.1445 ( 21) -0.1151 ( 25) -0.1034 ( 26)  0.1336 ( 28)  0.1085 ( 31)
          -0.1743 ( 41) -0.1741 ( 42) -0.1359 ( 43)  0.2165 ( 59)  0.1749 ( 60)
           0.1038 ( 61)  0.1828 ( 74) -0.1086 ( 79) -0.1785 ( 92) -0.1612 ( 94)
          -0.1009 ( 96)  0.1212 (111) -0.1258 (113) -0.1213 (118)  0.1684 (128)
 CRD 38=   0.1673 (  7) -0.3203 (  9)  0.1661 ( 15)  0.1414 ( 17) -0.1055 ( 20)
          -0.1241 ( 25)  0.1392 ( 28)  0.1715 ( 39)  0.1672 ( 46) -0.1546 ( 53)
           0.1097 ( 57) -0.1151 ( 60) -0.1516 ( 63)  0.1952 ( 74) -0.1244 ( 80)
          -0.1275 ( 88) -0.2235 ( 95) -0.1207 (102) -0.1560 (105)  0.1803 (109)
           0.1131 (115)  0.1262 (117) -0.1009 (118) -0.1209 (120)  0.1347 (123)
           0.1803 (124)  0.2088 (125)  0.1250 (127) -0.1825 (128)  0.1134 (130)
 CRD 39=   0.2675 (  4) -0.3039 (  5) -0.2313 ( 10)  0.1815 ( 11) -0.2463 ( 13)
           0.1072 ( 18)  0.1916 ( 19)  0.1400 ( 27) -0.1000 ( 29) -0.1452 ( 30)
          -0.1340 ( 37)  0.1080 ( 39)  0.1007 ( 45)  0.1437 ( 52) -0.1343 ( 55)
          -0.1231 ( 56) -0.1405 ( 63)  0.1432 ( 68) -0.1118 ( 69)  0.1060 ( 83)
           0.1944 ( 87)  0.1351 (100) -0.1198 (101)  0.1409 (103) -0.2232 (124)
           0.2252 (130)  0.1077 (131) -0.1250 (133)
 CRD 40=  -0.2841 (  4)  0.2741 (  5) -0.1020 (  6) -0.1018 (  7)  0.1181 (  8)
          -0.1107 ( 10)  0.2016 ( 11) -0.1518 ( 12)  0.1022 ( 17) -0.1261 ( 20)
           0.1071 ( 21) -0.1791 ( 27)  0.1159 ( 30) -0.1417 ( 38)  0.1001 ( 46)
           0.1582 ( 50) -0.1274 ( 55) -0.1285 ( 56)  0.1484 ( 61)  0.1100 ( 68)
          -0.1099 ( 69)  0.1902 ( 75)  0.1408 ( 76)  0.1119 ( 77) -0.1068 ( 78)
           0.1244 ( 79)  0.1256 ( 85) -0.1019 ( 89) -0.1689 (101) -0.1667 (102)
           0.1109 (111) -0.1211 (113)  0.1249 (114)  0.1358 (125)  0.1101 (126)
           0.1691 (131) -0.1274 (132)
 CRD 41=   0.1942 (  9) -0.1852 ( 13)  0.1143 ( 15)  0.3396 ( 16) -0.2558 ( 18)
          -0.1498 ( 21) -0.1216 ( 39)  0.1620 ( 46)  0.1282 ( 49) -0.1434 ( 50)
          -0.1616 ( 52)  0.1642 ( 57)  0.1826 ( 58)  0.1240 ( 64)  0.1222 ( 68)
           0.1093 ( 80)  0.1307 ( 89)  0.1331 (102)  0.1807 (109)  0.2016 (127)
          -0.2473 (128) -0.1987 (130)  0.1493 (133)
 CRD 42=  -0.1060 (  4)  0.1480 (  5) -0.1085 (  7)  0.3047 (  9) -0.1847 ( 10)
          -0.2927 ( 11)  0.2158 ( 12) -0.1702 ( 13)  0.1045 ( 14) -0.1284 ( 16)
          -0.1156 ( 17)  0.2387 ( 19)  0.1079 ( 29)  0.1175 ( 45) -0.1022 ( 49)
           0.1084 ( 52)  0.1119 ( 60) -0.1591 ( 62) -0.1149 ( 64) -0.1268 ( 68)
           0.1267 ( 77)  0.1012 ( 81)  0.1560 (103) -0.1355 (111)  0.1131 (119)
           0.1211 (124) -0.1914 (128) -0.1360 (129)  0.1856 (130)
 CRD 43=   0.1947 (  4) -0.1849 (  5) -0.1010 (  9)  0.2187 ( 10) -0.1230 ( 11)
           0.1019 ( 15) -0.1108 ( 18) -0.1135 ( 23)  0.1393 ( 28) -0.1082 ( 30)
           0.1527 ( 37) -0.1743 ( 38) -0.1107 ( 39)  0.1387 ( 45)  0.1443 ( 46)
          -0.1652 ( 49)  0.1283 ( 50)  0.1487 ( 53)  0.1198 ( 54) -0.1310 ( 55)
          -0.1011 ( 62)  0.1172 ( 72) -0.1747 ( 76) -0.2255 ( 80) -0.1119 ( 87)
          -0.1343 ( 89)  0.1442 ( 95) -0.1165 (113)  0.1419 (114)  0.1354 (119)
          -0.1288 (120)  0.1468 (125)  0.1939 (126) -0.1765 (129)  0.1265 (131)
          -0.1435 (132)
 CRD 44=  -0.3065 (  6)  0.3076 (  7)  0.1042 (  9)  0.1167 ( 14) -0.1029 ( 17)
           0.1278 ( 42) -0.2078 ( 43)  0.2519 ( 59) -0.1870 ( 60) -0.2612 ( 84)
           0.1002 ( 85)  0.1452 ( 86)  0.1279 ( 94) -0.1491 ( 96) -0.3340 (106)
           0.1161 (119) -0.1940 (121)  0.1674 (122)  0.2124 (123)  0.1402 (133)
 CRD 45=   0.1055 (  5)  0.1583 (  6)  0.1211 (  7) -0.2475 (  8)  0.1490 ( 12)
          -0.1271 ( 13)  0.1464 ( 16)  0.1571 ( 18) -0.1937 ( 21)  0.1777 ( 41)
           0.1384 ( 44) -0.1190 ( 55) -0.1972 ( 61)  0.1372 ( 62)  0.1275 ( 64)
          -0.1842 ( 69)  0.1059 ( 77)  0.1220 ( 81) -0.1682 ( 85)  0.1537 ( 86)
           0.1353 ( 96)  0.1465 (100) -0.1153 (101) -0.1487 (107)  0.1731 (108)
           0.1101 (113) -0.1098 (115) -0.1887 (122)  0.1332 (123)  0.2112 (125)
          -0.1051 (130) -0.1348 (132)
 CRD 46=   0.1169 (  6)  0.1277 (  7) -0.2438 (  8)  0.1504 ( 11)  0.1216 ( 15)
          -0.1787 ( 16)  0.1334 ( 23) -0.1084 ( 33)  0.3129 ( 35) -0.2775 ( 36)
           0.1282 ( 59) -0.1980 ( 61) -0.1176 ( 62)  0.1505 ( 67)  0.1377 ( 69)
          -0.2918 ( 73) -0.1114 ( 85)  0.1941 ( 86)  0.1126 ( 94)  0.1114 (101)
          -0.1991 (107)  0.1065 (108) -0.1229 (117) -0.1687 (122)  0.1369 (123)
          -0.1735 (125)
 CRD 47=  -0.1263 (  6)  0.1176 (  8) -0.1435 (  9)  0.1092 ( 10)  0.1152 ( 12)
          -0.1942 ( 14)  0.1578 ( 15)  0.2308 ( 20)  0.1252 ( 36) -0.1393 ( 37)
          -0.1048 ( 47)  0.1054 ( 52)  0.1332 ( 53) -0.1303 ( 55) -0.1106 ( 60)
          -0.1447 ( 64)  0.1879 ( 65)  0.1645 ( 67)  0.1008 ( 68) -0.1225 ( 70)
           0.1212 ( 71) -0.1160 ( 79) -0.1275 ( 82)  0.1879 ( 88)  0.1667 ( 95)
           0.1262 (100)  0.1618 (105) -0.1668 (114)  0.1018 (116) -0.1203 (117)
          -0.1113 (119) -0.1275 (121) -0.1104 (123) -0.1673 (127) -0.1504 (129)
          -0.1252 (133)
 CRD 48=  -0.1441 ( 11)  0.1286 ( 13) -0.1007 ( 17)  0.3479 ( 18) -0.1167 ( 19)
          -0.1304 ( 21) -0.1427 ( 33) -0.1277 ( 36)  0.1387 ( 38) -0.1148 ( 41)
           0.1857 ( 47) -0.1003 ( 51) -0.1047 ( 53) -0.1153 ( 55) -0.1026 ( 58)
           0.1782 ( 63)  0.1051 ( 67) -0.1566 ( 72)  0.2575 ( 89)  0.1224 ( 90)
          -0.1113 ( 91)  0.1288 ( 94) -0.1262 ( 95)  0.1167 ( 96) -0.1034 (108)
          -0.1186 (109)  0.1645 (111)  0.1556 (113) -0.1085 (117) -0.1039 (120)
           0.1680 (126) -0.1151 (127) -0.2360 (129)
 CRD 49=  -0.2562 ( 10)  0.2698 ( 16) -0.1792 ( 19)  0.2150 ( 21)  0.1173 ( 35)
           0.1129 ( 39)  0.2007 ( 40) -0.1772 ( 51) -0.1191 ( 52) -0.1057 ( 53)
           0.1322 ( 57)  0.1838 ( 63) -0.2210 ( 64) -0.1499 ( 89)  0.1005 (102)
          -0.2180 (103) -0.1242 (113) -0.1002 (114)  0.2233 (115)  0.1170 (126)
          -0.3138 (131)  0.3283 (132)
 CRD 50=   0.1111 ( 10) -0.4021 ( 13)  0.1756 ( 14)  0.1522 ( 18) -0.1276 ( 19)
           0.1229 ( 36) -0.1859 ( 37) -0.1197 ( 47)  0.1733 ( 48)  0.1131 ( 49)
           0.1375 ( 50) -0.2122 ( 62) -0.1109 ( 68) -0.1177 ( 75)  0.1339 ( 80)
          -0.1010 ( 82)  0.1050 ( 87) -0.1096 ( 94)  0.1014 (101)  0.1051 (114)
          -0.1152 (118)  0.1388 (119) -0.1592 (120) -0.1689 (125)  0.2820 (126)
           0.1503 (127) -0.1477 (129)
 CRD 51=   0.2009 (  9) -0.1971 ( 10) -0.1470 ( 12)  0.1079 ( 15) -0.1597 ( 16)
           0.1322 ( 17)  0.1629 ( 20) -0.1556 ( 23)  0.1314 ( 38) -0.1085 ( 44)
           0.1006 ( 50) -0.1589 ( 54) -0.1385 ( 58) -0.1636 ( 67)  0.1360 ( 69)
           0.1167 ( 70) -0.1162 ( 71) -0.1289 ( 77)  0.1461 ( 79)  0.1229 ( 82)
          -0.1595 ( 90)  0.1116 ( 91) -0.1091 ( 97) -0.1046 (100)  0.1398 (104)
           0.1033 (111) -0.1796 (112)  0.1402 (116) -0.1529 (120)  0.1522 (124)
          -0.1342 (131) -0.1293 (132) -0.2543 (133)
 CRD 52=   0.1164 ( 10) -0.1861 ( 11) -0.1394 ( 15)  0.1771 ( 17)  0.1146 ( 20)
          -0.1015 ( 33)  0.2432 ( 35) -0.2051 ( 36)  0.1088 ( 38) -0.1463 ( 41)
           0.1007 ( 43)  0.1172 ( 44)  0.1060 ( 45) -0.1191 ( 49) -0.1037 ( 52)
          -0.1076 ( 54) -0.1614 ( 56)  0.1431 ( 57) -0.1033 ( 63)  0.1226 ( 67)
          -0.1276 ( 69) -0.2321 ( 73)  0.1476 ( 77)  0.1194 ( 83)  0.1550 ( 99)
           0.1692 (104) -0.2031 (110) -0.1103 (111)  0.1103 (115)  0.1418 (117)
           0.2054 (127)  0.2053 (129) -0.1204 (131) -0.2124 (133)
 CRD 53=  -0.1801 (  9) -0.1932 ( 10)  0.1052 ( 11)  0.1165 ( 13)  0.1135 ( 14)
           0.1129 ( 17) -0.1224 ( 18)  0.2327 ( 23)  0.1409 ( 32) -0.3651 ( 35)
           0.2529 ( 36)  0.1044 ( 41) -0.1380 ( 42) -0.1055 ( 43) -0.1117 ( 44)
           0.1065 ( 47)  0.1679 ( 65) -0.1405 ( 72)  0.2163 ( 73) -0.1950 ( 91)
          -0.1360 ( 93)  0.1095 ( 99) -0.1127 (102)  0.1439 (118) -0.1104 (122)
          -0.1662 (124) -0.1886 (125)  0.1326 (127) -0.1115 (133)
 CRD 54=   0.4270 (  9)  0.1191 ( 10)  0.1827 ( 11)  0.2480 ( 13) -0.1193 ( 33)
           0.2334 ( 36)  0.2334 ( 40)  0.2066 ( 41)  0.2314 ( 43) -0.2050 ( 47)
          -0.1224 ( 51) -0.1355 ( 54) -0.1600 ( 60)  0.1665 ( 67)  0.1697 ( 72)
           0.1948 ( 73)  0.1635 ( 93)  0.1322 ( 94) -0.1081 ( 95) -0.1033 ( 96)
          -0.1618 ( 97)

 THE DETERMINANT OF THE G MATRIX IS 10**(   -13)


                     --------------------
                     INTERNAL COORDINATES
                     --------------------

                 - - ATOMS - -         COORDINATE      COORDINATE
 NO.   TYPE    I  J  K  L  M  N        (BOHR,RAD)       (ANG,DEG)
 ----------------------------------------------------------------
   1 STRETCH   1  4                     3.7476858       1.9831900
   2 STRETCH   1  7                     3.9291197       2.0792008
   3 STRETCH   4  6                     3.7944221       2.0079218
   4 STRETCH   1  3                     2.2382682       1.1844406
   5 STRETCH   1  2                     2.2357251       1.1830948
   6 STRETCH   5 13                     2.0971051       1.1097403
   7 STRETCH   5 12                     2.0971542       1.1097663
   8 STRETCH   5 11                     2.0985869       1.1105245
   9 STRETCH   5  6                     2.8465868       1.5063490
  10 STRETCH   6 10                     2.8317877       1.4985176
  11 STRETCH   6  7                     2.5747099       1.3624779
  12 STRETCH   7 14                     2.0924473       1.1072755
  13 STRETCH   7  8                     2.8862667       1.5273467
  14 STRETCH   8 16                     2.1003339       1.1114489
  15 STRETCH   8 15                     2.0981648       1.1103011
  16 STRETCH   8  9                     2.8884017       1.5284765
  17 STRETCH   9 17                     2.1082702       1.1156486
  18 STRETCH   9 10                     2.8664783       1.5168751
  19 STRETCH   9 18                     2.0985594       1.1105099
  20 STRETCH  10 20                     2.1035480       1.1131497
  21 STRETCH  10 19                     2.0987508       1.1106112
  22 BEND      1  7  6                  1.8610666     106.6312603
  23 BEND      1  7  8                  1.8396469     105.4040035
  24 BEND      1  4  6                  1.5502309      88.8216850
  25 BEND      1  7 14                  1.5685927      89.8737427
  26 BEND      2  1  3                  2.0125090     115.3082710
  27 BEND      2  1  4                  2.0326154     116.4602817
  28 BEND      2  1  7                  2.0572574     117.8721662
  29 BEND      3  1  7                  1.9210684     110.0691110
  30 BEND      3  1  4                  2.0390088     116.8265975
  31 BEND      4  6  7                  1.5801096      90.5336103
  32 BEND      4  6 10                  1.6885123      96.7446275
  33 BEND      4  6  5                  1.6074199      92.0983737
  34 BEND      4  1  7                  1.2860000      73.6823715
  35 BEND      5  6 10                  2.1653686     124.0664824
  36 BEND      5  6  7                  2.1714605     124.4155192
  37 BEND      6  7 14                  2.0518156     117.5603749
  38 BEND      6 10 19                  2.0057906     114.9233360
  39 BEND      6 10 20                  1.9092982     109.3947289
  40 BEND      6 10  9                  1.7349082      99.4029194
  41 BEND      6  5 11                  1.9387794     111.0838779
  42 BEND      6  5 13                  1.9201187     110.0146963
  43 BEND      6  5 12                  1.9081167     109.3270356
  44 BEND      6  7  8                  1.8735359     107.3456991
  45 BEND      7  8 15                  1.9885680     113.9365526
  46 BEND      7  8 16                  1.9241948     110.2482435
  47 BEND      7  6 10                  1.9311934     110.6492300
  48 BEND      7  8  9                  1.7818169     102.0905860
  49 BEND      8  7 14                  2.1950212     125.7654517
  50 BEND      8  9 18                  2.0020070     114.7065508
  51 BEND      8  9 10                  1.7746026     101.6772392
  52 BEND      8  9 17                  1.8906422     108.3258176
  53 BEND      9 10 19                  1.9983713     114.4982405
  54 BEND      9 10 20                  1.8900048     108.2892962
  55 BEND      9  8 15                  1.9473509     111.5749870
  56 BEND      9  8 16                  1.9082158     109.3327094
  57 BEND     10  9 18                  2.0158148     115.4976828
  58 BEND     10  9 17                  1.8795511     107.6903482
  59 BEND     11  5 13                  1.8989867     108.8039253
  60 BEND     11  5 12                  1.8990093     108.8052159
  61 BEND     12  5 13                  1.8982588     108.7622152
  62 BEND     15  8 16                  1.9097553     109.4209160
  63 BEND     17  9 18                  1.8934440     108.4863501
  64 BEND     19 10 20                  1.9158635     109.7708911
  65 TORSION   1  7  6 10               1.7826069     102.1358519
  66 TORSION   1  7  8  9              -2.2780242    -130.5211749
  67 TORSION   1  7  6  5              -1.5391579     -88.1872529
  68 TORSION   1  7  8 15               1.9032034     109.0455205
  69 TORSION   1  7  8 16              -0.2517600     -14.4247854
  70 TORSION   1  4  6  7              -0.0828211      -4.7452987
  71 TORSION   1  7  6  4               0.0824273       4.7227384
  72 TORSION   1  4  6 10              -2.0178370    -115.6135418
  73 TORSION   1  4  6  5               2.0895428     119.7219808
  74 TORSION   2  1  4  6               2.0370960     116.7170018
  75 TORSION   2  1  7  6              -2.0371833    -116.7220064
  76 TORSION   2  1  7 14               2.1720110     124.4470635
  77 TORSION   2  1  7  8              -0.0493567      -2.8279284
  78 TORSION   3  1  4  6              -1.7696781    -101.3950853
  79 TORSION   3  1  7  6               1.8884603     108.2008024
  80 TORSION   3  1  7 14              -0.1855307     -10.6301277
  81 TORSION   3  1  7  8              -2.4068984    -137.9051197
  82 TORSION   4  1  7  6              -0.0869654      -4.9827506
  83 TORSION   4  1  7  8               1.9008613     108.9113274
  84 TORSION   4  6  5 11              -1.4922997     -85.5024729
  85 TORSION   4  6  5 12               2.6949512     154.4093308
  86 TORSION   4  6  5 13               0.6114752      35.0349510
  87 TORSION   4  1  7 14              -2.1609564    -123.8136807
  88 TORSION   4  6 10 19              -1.9288125    -110.5128174
  89 TORSION   4  6 10 20               0.2351960      13.4757373
  90 TORSION   4  6 10  9               2.2126325     126.7745037
  91 TORSION   4  6  7  8              -1.8821975    -107.8419719
  92 TORSION   4  6  7 14               1.8071338     103.5411375
  93 TORSION   5  6  7  8               2.7794026     159.2480367
  94 TORSION   5  6  7 14               0.1855485      10.6311462
  95 TORSION   5  6 10 19              -0.2332147     -13.3622195
  96 TORSION   5  6 10 20               1.9307938     110.6263352
  97 TORSION   5  6 10  9              -2.3749550    -136.0748984
  98 TORSION   6  4  1  7               0.0565126       3.2379363
  99 TORSION   6  7  8  9              -0.2988987     -17.1256346
 100 TORSION   6  7  8 15              -2.4008564    -137.5589393
 101 TORSION   6  7  8 16               1.7273655      98.9707549
 102 TORSION   6 10  9 18              -2.9132772    -166.9184896
 103 TORSION   6 10  9 17               1.2512677      71.6923599
 104 TORSION   6 10  9  8              -0.7342352     -42.0685773
 105 TORSION   7  6 10 19               2.7289594     156.3578562
 106 TORSION   7  6  5 11               0.1149039       6.5835084
 107 TORSION   7  6  5 12              -1.9810305    -113.5046879
 108 TORSION   7  6  5 13               2.2186788     127.1209323
 109 TORSION   7  8  9 18               2.8349868     162.4327806
 110 TORSION   7  8  9 10               0.6467453      37.0557753
 111 TORSION   7  8  9 17              -1.3304750     -76.2306044
 112 TORSION   7  6 10  9               0.5872191      33.6451773
 113 TORSION   7  6 10 20              -1.3902174     -79.6535891
 114 TORSION   8  9 10 19              -2.8812603    -165.0840540
 115 TORSION   8  9 10 20               1.2581801      72.0884069
 116 TORSION   8  7  6 10              -0.1820179     -10.4288585
 117 TORSION   9  8  7 14               2.2374520     128.1965557
 118 TORSION  10  6  7 14              -2.7758720    -159.0457490
 119 TORSION  10  9  8 15               2.7771964     159.1216303
 120 TORSION  10  9  8 16              -1.3910879     -79.7034667
 121 TORSION  10  6  5 11               3.0526628     174.9046932
 122 TORSION  10  6  5 12               0.9567284      54.8164969
 123 TORSION  10  6  5 13              -1.1267476     -64.5578829
 124 TORSION  14  7  8 16              -2.0194691    -115.7070548
 125 TORSION  14  7  8 15               0.1354943       7.7632511
 126 TORSION  15  8  9 17               0.7999760      45.8352507
 127 TORSION  15  8  9 18              -1.3177474     -75.5013643
 128 TORSION  16  8  9 17               2.9148771     167.0101537
 129 TORSION  16  8  9 18               0.7971536      45.6735387
 130 TORSION  17  9 10 20              -3.0395023    -174.1506558
 131 TORSION  17  9 10 19              -0.8957574     -51.3231168
 132 TORSION  18  9 10 20              -0.9208620     -52.7615054
 133 TORSION  18  9 10 19               1.2228830      70.0660337

     ------------------------------------------
     THE POINT GROUP IS C1 , NAXIS= 0, ORDER= 1
     ------------------------------------------

     DIMENSIONS OF THE SYMMETRY SUBSPACES ARE
 A   =   48

 ..... DONE SETTING UP THE RUN .....
 STEP CPU TIME =     0.09 TOTAL CPU TIME =          0.1 (      0.0 MIN)
 TOTAL WALL CLOCK TIME=          0.1 SECONDS, CPU UTILIZATION IS    69.23%


          -----------------------------
          STATIONARY POINT LOCATION RUN
          -----------------------------


           ** GEOMETRY CONSTRAINTS ARE BEING APPLIED. **

          TRANSFORMING DISPLACEMENT FROM INTERNALS TO CARTESIANS
          THE ROOT MEAN SQUARE ERROR IN ITERATION   1 IS   0.00000203
          THE ROOT MEAN SQUARE ERROR IN ITERATION   2 IS   0.00000000
 WARNING! THE RADIUS IN CARTESIANS IS    0.00794
 OBTAINING INITIAL HESSIAN, HESS=CALC    

     ---------------------------------
     HESSIAN MATRIX CONTROL PARAMETERS
     ---------------------------------
     METHOD=ANALYTIC   NVIB  =       2   VIBSIZ= 0.01000
     RDHESS=       F   PURIFY=       F   PRTIFC=       F
     VIBANL=       F   DECOMP=       F   PROJCT=       F
     SCLFAC= 1.00000   PRTSCN=       F   NPRT  =       0
     PULCOR=       F   NPUN  =       0   REDOVB=       T
     HSSTYP=GENERAL 
 Old integral subroutine is used

     ------------------------------
     CPHF RESPONSE SOLUTION OPTIONS
     ------------------------------
     POLAR  =       F     NWORD  =       0
     CPHF   =AO      

          ********************
          1 ELECTRON INTEGRALS
          ********************
 ...... END OF ONE-ELECTRON INTEGRALS ......
 STEP CPU TIME =     0.05 TOTAL CPU TIME =          0.1 (      0.0 MIN)
 TOTAL WALL CLOCK TIME=          0.2 SECONDS, CPU UTILIZATION IS    77.78%

          -------------
          GUESS OPTIONS
          -------------
          GUESS =HUCKEL            NORB  =       0          NORDER=       0
          MIX   =       F          PRTMO =       F          PUNMO =       F
          TOLZ  = 1.0E-08          TOLE  = 1.0E-05
          SYMDEN=       F          PURIFY=       F

 INITIAL GUESS ORBITALS GENERATED BY HUCKEL   ROUTINE.
 HUCKEL GUESS REQUIRES     39252 WORDS.

 SYMMETRIES FOR INITIAL GUESS ORBITALS FOLLOW.   BOTH SET(S).
    27 ORBITALS ARE OCCUPIED (    7 CORE ORBITALS).
     8=A        9=A       10=A       11=A       12=A       13=A       14=A   
    15=A       16=A       17=A       18=A       19=A       20=A       21=A   
    22=A       23=A       24=A       25=A       26=A       27=A       28=A   
    29=A       30=A       31=A       32=A       33=A       34=A       35=A   
    36=A       37=A   
 ...... END OF INITIAL ORBITAL SELECTION ......
 STEP CPU TIME =     0.01 TOTAL CPU TIME =          0.2 (      0.0 MIN)
 TOTAL WALL CLOCK TIME=          0.2 SECONDS, CPU UTILIZATION IS    75.00%

                    ----------------------
                    AO INTEGRAL TECHNOLOGY
                    ----------------------
     S,P,L SHELL ROTATED AXIS INTEGRALS, REPROGRAMMED BY
        KAZUYA ISHIMURA (IMS) AND JOSE SIERRA (SYNSTAR).
     S,P,D,L SHELL ROTATED AXIS INTEGRALS PROGRAMMED BY
        KAZUYA ISHIMURA (INSTITUTE FOR MOLECULAR SCIENCE).
     S,P,D,F,G SHELL TO TOTAL QUARTET ANGULAR MOMENTUM SUM 5,
        ERIC PROGRAM BY GRAHAM FLETCHER (ELORET AND NASA ADVANCED
        SUPERCOMPUTING DIVISION, AMES RESEARCH CENTER).
     S,P,D,F,G,L SHELL GENERAL RYS QUADRATURE PROGRAMMED BY
        MICHEL DUPUIS (PACIFIC NORTHWEST NATIONAL LABORATORY).

          --------------------
          2 ELECTRON INTEGRALS
          --------------------

 THE -PK- OPTION IS OFF, THE INTEGRALS ARE NOT IN SUPERMATRIX FORM.
 STORING   15000 INTEGRALS/RECORD ON DISK, USING 12 BYTES/INTEGRAL.
 TWO ELECTRON INTEGRAL EVALUATION REQUIRES   89734 WORDS OF MEMORY.
 SCHWARZ INEQUALITY OVERHEAD:      1167 INTEGRALS, T=        0.01
 II,JST,KST,LST =  1  1  1  1 NREC =         1 INTLOC =    1
 II,JST,KST,LST =  2  1  1  1 NREC =         1 INTLOC =    2
 II,JST,KST,LST =  3  1  1  1 NREC =         1 INTLOC =   34
 II,JST,KST,LST =  4  1  1  1 NREC =         1 INTLOC =  145
 II,JST,KST,LST =  5  1  1  1 NREC =         1 INTLOC =  320
 II,JST,KST,LST =  6  1  1  1 NREC =         1 INTLOC =  580
 II,JST,KST,LST =  7  1  1  1 NREC =         1 INTLOC =  860
 II,JST,KST,LST =  8  1  1  1 NREC =         1 INTLOC = 3700
 II,JST,KST,LST =  9  1  1  1 NREC =         1 INTLOC = 4867
 II,JST,KST,LST = 10  1  1  1 NREC =         1 INTLOC =13690
 II,JST,KST,LST = 11  1  1  1 NREC =         2 INTLOC = 1638
 II,JST,KST,LST = 12  1  1  1 NREC =         3 INTLOC = 6168
 II,JST,KST,LST = 13  1  1  1 NREC =         3 INTLOC =11695
 II,JST,KST,LST = 14  1  1  1 NREC =         6 INTLOC = 2753
 II,JST,KST,LST = 15  1  1  1 NREC =         6 INTLOC =11776
 II,JST,KST,LST = 16  1  1  1 NREC =        10 INTLOC =11223
 II,JST,KST,LST = 17  1  1  1 NREC =        11 INTLOC =11720
 II,JST,KST,LST = 18  1  1  1 NREC =        18 INTLOC =  777
 II,JST,KST,LST = 19  1  1  1 NREC =        19 INTLOC =13999
 II,JST,KST,LST = 20  1  1  1 NREC =        21 INTLOC =14194
 II,JST,KST,LST = 21  1  1  1 NREC =        24 INTLOC = 1805
 II,JST,KST,LST = 22  1  1  1 NREC =        26 INTLOC = 7826
 II,JST,KST,LST = 23  1  1  1 NREC =        29 INTLOC =  798
 II,JST,KST,LST = 24  1  1  1 NREC =        31 INTLOC =11874
 II,JST,KST,LST = 25  1  1  1 NREC =        34 INTLOC =10581
 II,JST,KST,LST = 26  1  1  1 NREC =        37 INTLOC =11174
 II,JST,KST,LST = 27  1  1  1 NREC =        41 INTLOC = 1041
 SCHWARZ INEQUALITY TEST SKIPPED        8521 INTEGRAL BLOCKS.
 TOTAL NUMBER OF NONZERO TWO-ELECTRON INTEGRALS =              655045
         44 INTEGRAL RECORDS WERE STORED ON DISK FILE  8.
  ...... END OF TWO-ELECTRON INTEGRALS .....
 STEP CPU TIME =     0.22 TOTAL CPU TIME =          0.4 (      0.0 MIN)
 TOTAL WALL CLOCK TIME=          0.4 SECONDS, CPU UTILIZATION IS    88.10%

          --------------------------
                 RHF SCF CALCULATION
          --------------------------

     NUCLEAR ENERGY =       301.8326822888
     MAXIT =   30     NPUNCH=    2
     EXTRAP=T  DAMP=F  SHIFT=F  RSTRCT=F  DIIS=F  DEM=F  SOSCF=T
     DENSITY MATRIX CONV=  1.00E-05
     SOSCF WILL OPTIMIZE     567 ORBITAL ROTATIONS, SOGTOL=   0.250
     MEMORY REQUIRED FOR RHF ITERS=     49068 WORDS.

 ITER EX DEM     TOTAL ENERGY        E CHANGE  DENSITY CHANGE     ORB. GRAD
   1  0  0     -255.6963168386  -255.6963168386   0.307330580   0.000000000
          ---------------START SECOND ORDER SCF---------------
   2  1  0     -256.0610771577    -0.3647603191   0.105677566   0.035666738
   3  2  0     -256.0831726606    -0.0220955029   0.047510757   0.019715360
   4  3  0     -256.0878406824    -0.0046680219   0.010762216   0.003444688
   5  4  0     -256.0881982232    -0.0003575408   0.012776172   0.002337779
   6  5  0     -256.0883470131    -0.0001487899   0.011987670   0.001264072
   7  6  0     -256.0884130265    -0.0000660134   0.002885015   0.000391880
   8  7  0     -256.0884219238    -0.0000088973   0.000752119   0.000144142
   9  8  0     -256.0884231975    -0.0000012737   0.000248417   0.000064647
  10  9  0     -256.0884233207    -0.0000001232   0.000076304   0.000017906
  11 10  0     -256.0884233371    -0.0000000165   0.000023176   0.000008444
  12 11  0     -256.0884233386    -0.0000000014   0.000008682   0.000002403
  13 12  0     -256.0884233387    -0.0000000001   0.000001659   0.000000419

          -----------------
          DENSITY CONVERGED
          -----------------
     TIME TO FORM FOCK OPERATORS=       0.1 SECONDS (       0.0 SEC/ITER)
     TIME TO SOLVE SCF EQUATIONS=       0.1 SECONDS (       0.0 SEC/ITER)

 FINAL RHF ENERGY IS     -256.0884233387 AFTER  13 ITERATIONS

          ------------
          EIGENVECTORS
          ------------

                      1          2          3          4          5
                  -11.1396   -11.0826   -11.0773   -11.0598   -11.0496
                     A          A          A          A          A   
    1  B  1  S    0.000007  -0.000004  -0.000006   0.000004   0.000014
    2  B  1  S    0.000116   0.000020   0.000031  -0.000033  -0.000006
    3  B  1  X   -0.000031   0.000007   0.000026  -0.000013  -0.000064
    4  B  1  Y   -0.000026   0.000016   0.000023   0.000031   0.000023
    5  B  1  Z    0.000122  -0.000008  -0.000009   0.000028  -0.000089
    6  H  2  S   -0.000056  -0.000005  -0.000002  -0.000004   0.000156
    7  H  3  S   -0.000020   0.000014   0.000004   0.000013  -0.000021
    8  H  4  S   -0.001800  -0.000061   0.000051  -0.000023   0.000014
    9  C  5  S   -0.001506   0.991985   0.001685  -0.000036   0.000127
   10  C  5  S   -0.005552   0.037363   0.000243  -0.000048  -0.000060
   11  C  5  X   -0.002818   0.000408   0.000061   0.000019  -0.000024
   12  C  5  Y    0.000687   0.000018   0.000081  -0.000032   0.000025
   13  C  5  Z   -0.002843   0.000199   0.000016  -0.000057  -0.000050
   14  C  6  S    0.992336   0.002453   0.001969   0.000938   0.000485
   15  C  6  S    0.035069  -0.005951  -0.006192  -0.000104   0.000269
   16  C  6  X    0.000854   0.003086  -0.003134  -0.000358  -0.000010
   17  C  6  Y   -0.001180  -0.000573  -0.003072   0.000196  -0.000059
   18  C  6  Z    0.000772   0.003186  -0.000936   0.000015  -0.000041
   19  C  7  S    0.002238  -0.000132  -0.000383  -0.000625  -0.002201
   20  C  7  S   -0.007247   0.000156   0.000219   0.000194  -0.005878
   21  C  7  X    0.000806  -0.000099   0.000058  -0.000036  -0.003939
   22  C  7  Y   -0.003816  -0.000045  -0.000024  -0.000042  -0.000154
   23  C  7  Z    0.002175  -0.000096  -0.000078   0.000148  -0.001638
   24  C  8  S   -0.000392  -0.000113  -0.002034  -0.011980   0.991900
   25  C  8  S    0.000152  -0.000045  -0.000071  -0.006188   0.037024
   26  C  8  X    0.000036   0.000030   0.000278  -0.001837  -0.000222
   27  C  8  Y   -0.000154  -0.000045  -0.000249  -0.003195   0.000534
   28  C  8  Z    0.000037   0.000006  -0.000098   0.002115  -0.000268
   29  C  9  S   -0.000775   0.000043  -0.005819   0.991862   0.012934
   30  C  9  S   -0.000025  -0.000005  -0.006072   0.037199  -0.005311
   31  C  9  X    0.000453  -0.000002   0.003240  -0.000801   0.001598
   32  C  9  Y    0.000282   0.000003  -0.002821  -0.000200   0.003305
   33  C  9  Z    0.000218  -0.000016   0.000357  -0.000296  -0.002198
   34  C 10  S   -0.001034  -0.001679   0.991887   0.006739   0.002240
   35  C 10  S   -0.005790   0.000065   0.037599  -0.005617   0.000009
   36  C 10  X    0.003034  -0.000031  -0.000270  -0.003491   0.000082
   37  C 10  Y    0.002673   0.000058  -0.001160   0.002537   0.000278
   38  C 10  Z    0.000996  -0.000112   0.000191  -0.000295  -0.000258
   39  H 11  S    0.000025  -0.006684  -0.000060  -0.000001  -0.000026
   40  H 12  S   -0.000121  -0.006776  -0.000046   0.000015  -0.000003
   41  H 13  S   -0.000052  -0.006702  -0.000059  -0.000003   0.000001
   42  H 14  S    0.000071  -0.000070  -0.000087  -0.000011   0.000069
   43  H 15  S   -0.000064  -0.000011  -0.000148   0.000195  -0.006697
   44  H 16  S   -0.000000   0.000005   0.000087   0.000099  -0.006759
   45  H 17  S   -0.000196   0.000030   0.000050  -0.006784  -0.000060
   46  H 18  S   -0.000208   0.000004   0.000168  -0.006645   0.000036
   47  H 19  S    0.000057  -0.000114  -0.006664   0.000079  -0.000176
   48  H 20  S   -0.000049   0.000037  -0.006761  -0.000040  -0.000012

                      6          7          8          9         10
                  -10.9966    -7.3823    -1.1350    -0.9976    -0.9352
                     A          A          A          A          A   
    1  B  1  S    0.000410   0.991085  -0.007573  -0.003190   0.017435
    2  B  1  S   -0.002696   0.035268   0.015514   0.007485  -0.038173
    3  B  1  X   -0.001664   0.000280   0.005583   0.000039  -0.013469
    4  B  1  Y   -0.000189  -0.001724   0.000465   0.001894   0.004234
    5  B  1  Z    0.002096   0.000565  -0.006502  -0.004763   0.012268
    6  H  2  S    0.000146  -0.006340   0.002902  -0.000371  -0.011240
    7  H  3  S    0.000292  -0.006386   0.002473   0.002296  -0.010573
    8  H  4  S    0.000013  -0.002544   0.007768   0.011010  -0.003369
    9  C  5  S    0.000151  -0.000005  -0.053305  -0.155512  -0.027257
   10  C  5  S    0.000278   0.000024   0.143445   0.436458   0.078475
   11  C  5  X    0.000052   0.000015   0.034592   0.041060   0.008761
   12  C  5  Y   -0.000048  -0.000028  -0.006158  -0.008840   0.024359
   13  C  5  Z    0.000080   0.000009   0.030909   0.034975  -0.005511
   14  C  6  S   -0.001573   0.000028  -0.138762  -0.103285   0.007049
   15  C  6  S   -0.008140   0.000076   0.360656   0.292616  -0.018091
   16  C  6  X   -0.000791  -0.000039   0.057910  -0.093910   0.031722
   17  C  6  Y    0.004413   0.000087  -0.023622  -0.013552   0.185395
   18  C  6  Z   -0.002114   0.000080   0.028370  -0.076881  -0.053428
   19  C  7  S    0.991959   0.000534  -0.103149  -0.020071   0.138915
   20  C  7  S    0.037045  -0.003018   0.251891   0.056105  -0.383094
   21  C  7  X    0.000273   0.001691   0.024956  -0.064903  -0.033794
   22  C  7  Y    0.002201   0.000035   0.074192   0.034952  -0.015555
   23  C  7  Z   -0.001825  -0.002412  -0.026503  -0.048217   0.004590
   24  C  8  S    0.003172   0.000027  -0.082780   0.086693   0.106077
   25  C  8  S   -0.005637   0.000216   0.210789  -0.238805  -0.306088
   26  C  8  X    0.003834   0.000177  -0.025601  -0.026032   0.067512
   27  C  8  Y    0.000191   0.000106   0.037894  -0.043546   0.033342
   28  C  8  Z    0.001773   0.000008  -0.036106   0.021514   0.009732
   29  C  9  S    0.000739   0.000004  -0.093236   0.111064  -0.055155
   30  C  9  S    0.000151  -0.000054   0.237758  -0.308905   0.158370
   31  C  9  X    0.000236   0.000012  -0.063794   0.030133  -0.024670
   32  C  9  Y    0.000044   0.000068  -0.003865   0.019288   0.104642
   33  C  9  Z    0.000156   0.000014   0.005126  -0.017461  -0.039280
   34  C 10  S    0.000458  -0.000008  -0.112786   0.034383  -0.145557
   35  C 10  S    0.000224   0.000036   0.292643  -0.092611   0.423755
   36  C 10  X   -0.000034  -0.000031  -0.013246  -0.081030   0.019412
   37  C 10  Y    0.000072   0.000015  -0.075185   0.019034   0.005961
   38  C 10  Z   -0.000168   0.000030  -0.004156  -0.027412  -0.014402
   39  H 11  S   -0.000109  -0.000067   0.024797   0.103818   0.008021
   40  H 12  S   -0.000009  -0.000002   0.027154   0.107393   0.030710
   41  H 13  S   -0.000022   0.000093   0.024320   0.101040   0.028267
   42  H 14  S   -0.006584  -0.000589   0.041969   0.022595  -0.106440
   43  H 15  S    0.000017  -0.000026   0.032774  -0.054229  -0.082826
   44  H 16  S    0.000000  -0.000748   0.037017  -0.055649  -0.076179
   45  H 17  S   -0.000100  -0.000007   0.046450  -0.070534   0.041575
   46  H 18  S   -0.000147   0.000003   0.036932  -0.071648   0.046568
   47  H 19  S   -0.000109   0.000001   0.048435  -0.014590   0.129235
   48  H 20  S   -0.000014  -0.000047   0.052692  -0.025503   0.107374

                     11         12         13         14         15
                   -0.8843    -0.7644    -0.6882    -0.6385    -0.6292
                     A          A          A          A          A   
    1  B  1  S    0.009667   0.000338   0.060796  -0.015115  -0.073224
    2  B  1  S   -0.022441  -0.001197  -0.148753   0.040163   0.186328
    3  B  1  X   -0.005571  -0.008029  -0.010811   0.009340  -0.005960
    4  B  1  Y   -0.000559  -0.002486   0.032759   0.013846  -0.012096
    5  B  1  Z    0.009759  -0.011735   0.014896   0.006319   0.009395
    6  H  2  S   -0.003625  -0.011436  -0.064038   0.026697   0.101741
    7  H  3  S   -0.006340   0.005336  -0.080608   0.006989   0.099755
    8  H  4  S   -0.010810  -0.003660  -0.007057   0.028157   0.073892
    9  C  5  S   -0.136794   0.014597   0.025645  -0.022367   0.023643
   10  C  5  S    0.404370  -0.046567  -0.082819   0.078944  -0.082223
   11  C  5  X   -0.033625   0.010036   0.137532  -0.183276   0.101291
   12  C  5  Y    0.012599  -0.061406   0.034130  -0.018737  -0.033087
   13  C  5  Z   -0.046569   0.025187   0.096873  -0.062420   0.267601
   14  C  6  S    0.074974  -0.025292  -0.107767   0.017019  -0.064788
   15  C  6  S   -0.225985   0.077849   0.365060  -0.069216   0.230564
   16  C  6  X   -0.125326  -0.036830   0.071086   0.043936  -0.241908
   17  C  6  Y    0.048567  -0.190602   0.100569  -0.097153   0.040167
   18  C  6  Z   -0.129298   0.004819  -0.037460   0.200279  -0.057338
   19  C  7  S    0.070843  -0.039938   0.090384   0.008766   0.033991
   20  C  7  S   -0.194372   0.112329  -0.297965  -0.040528  -0.106219
   21  C  7  X    0.051653  -0.110358   0.090014   0.002944  -0.188425
   22  C  7  Y   -0.072754   0.042131   0.202797   0.187531   0.020555
   23  C  7  Z    0.045985  -0.118715  -0.028427   0.067880   0.017968
   24  C  8  S   -0.091750   0.113407  -0.026226   0.019628  -0.006674
   25  C  8  S    0.270158  -0.356133   0.081032  -0.065786   0.023296
   26  C  8  X    0.087605   0.021770   0.093815  -0.077508   0.151080
   27  C  8  Y    0.024742   0.078219   0.056687   0.232236   0.000048
   28  C  8  Z    0.000705  -0.113403  -0.022641   0.066146   0.191082
   29  C  9  S   -0.097603  -0.119915  -0.000160  -0.011570  -0.016459
   30  C  9  S    0.291303   0.380183   0.000441   0.038291   0.055187
   31  C  9  X    0.046356   0.103094  -0.036051  -0.093373   0.225445
   32  C  9  Y   -0.067447   0.033570  -0.149785   0.064850   0.048672
   33  C  9  Z    0.029762  -0.100105  -0.005281   0.196382   0.155557
   34  C 10  S    0.066816   0.071296   0.057097   0.010095   0.016121
   35  C 10  S   -0.197467  -0.226514  -0.191640  -0.034824  -0.049686
   36  C 10  X    0.087994   0.125814  -0.155781   0.029192  -0.069526
   37  C 10  Y    0.006513  -0.097257  -0.216916  -0.136107   0.113478
   38  C 10  Z    0.003801  -0.027138  -0.068964   0.303260   0.079910
   39  H 11  S    0.124065   0.012165  -0.120088   0.120057  -0.076597
   40  H 12  S    0.134905  -0.035513  -0.043085   0.000817  -0.188572
   41  H 13  S    0.125994  -0.045624  -0.053093   0.087604  -0.046300
   42  H 14  S   -0.050567   0.074303  -0.258238  -0.141238  -0.004702
   43  H 15  S    0.092812  -0.146158   0.032167  -0.204757   0.051032
   44  H 16  S    0.078945  -0.175797   0.015973   0.064737   0.150185
   45  H 17  S    0.087033   0.194316   0.030734  -0.162179  -0.058735
   46  H 18  S    0.099188   0.164444  -0.059273   0.039300   0.222280
   47  H 19  S   -0.050887  -0.104094  -0.164734  -0.237146  -0.009433
   48  H 20  S   -0.061154  -0.128264  -0.153134   0.144217   0.083592

                     16         17         18         19         20
                   -0.5994    -0.5635    -0.5512    -0.5306    -0.5016
                     A          A          A          A          A   
    1  B  1  S   -0.175832   0.036398   0.051934  -0.035224  -0.003323
    2  B  1  S    0.447469  -0.089673  -0.133278   0.089676   0.013692
    3  B  1  X   -0.012820   0.000643   0.027180  -0.055487   0.039894
    4  B  1  Y   -0.071048   0.029290   0.019051  -0.035098   0.046944
    5  B  1  Z    0.072772  -0.044782  -0.045078   0.006844   0.020453
    6  H  2  S    0.280376  -0.087854  -0.101237   0.031645   0.036674
    7  H  3  S    0.265577  -0.061356  -0.095373   0.106171  -0.053440
    8  H  4  S    0.065635   0.045793  -0.020704   0.021921   0.037375
    9  C  5  S   -0.002382  -0.003720   0.002377   0.001138   0.007683
   10  C  5  S    0.008802   0.013401  -0.008399  -0.004027  -0.025853
   11  C  5  X   -0.010000  -0.338439   0.205826   0.108680  -0.083676
   12  C  5  Y    0.184359   0.233994   0.418204  -0.049926   0.045197
   13  C  5  Z   -0.038862   0.291700  -0.099226  -0.136340  -0.238570
   14  C  6  S    0.007974   0.008146   0.003507  -0.001007  -0.014515
   15  C  6  S   -0.022622  -0.029226  -0.011035   0.006043   0.044113
   16  C  6  X    0.081170  -0.044890   0.022286   0.033298   0.110031
[...]
 19   H            X  0.01815053  0.04525983 -0.05015547  0.00047903  0.00022910
                   Y  0.03572028 -0.09581946  0.10882411  0.00023319  0.00108600
                   Z  0.02604478 -0.10587441  0.11588885  0.00013633 -0.00071634
 20   H            X  0.00733487  0.00938569 -0.01640481  0.00017432  0.00010093
                   Y  0.02654064 -0.12161214  0.13385279  0.00068180  0.00106742
                   Z -0.01310576  0.08728779 -0.09424859  0.00062168  0.00023422

 TRANS. SAYVETZ    X -0.00000033 -0.00000012 -0.00000077  0.00000031 -0.00000003
                   Y -0.00000071 -0.00000038  0.00000031  0.00000005 -0.00000001
                   Z  0.00000137 -0.00000008 -0.00000015 -0.00000003 -0.00000002
               TOTAL  0.00000158  0.00000041  0.00000084  0.00000031  0.00000003

   ROT. SAYVETZ    X -0.00491728  0.00404151  0.00606385  0.00390747  0.02249276
                   Y  0.00130772  0.00093500 -0.00006603  0.00201301 -0.02036304
                   Z -0.00580820  0.00246873  0.00446857  0.00300900 -0.01526237
               TOTAL  0.00772172  0.00482728  0.00753278  0.00532678  0.03396347

                           51          52          53          54          55
       FREQUENCY:      3566.03     3609.38     3618.67     3629.41     3722.22  
        SYMMETRY:         A           A           A           A           A   
    REDUCED MASS:      1.03938     1.06598     1.06728     1.06866     1.11114
    IR INTENSITY:      0.00844     0.05950     0.06418     0.01529     0.00767

  1   B            X  0.00007217  0.00024671 -0.00007169  0.00035931 -0.00002112
                   Y -0.00003523 -0.00007653  0.00005289 -0.00000276 -0.00011329
                   Z  0.00010977 -0.00015884  0.00007658  0.00007274 -0.00022373
  2   H            X -0.00000352  0.00052326 -0.00018707 -0.00115401  0.00106905
                   Y  0.00020577  0.00027682 -0.00016013 -0.00017861  0.00028860
                   Z  0.00010338  0.00077140 -0.00038417 -0.00072647  0.00106421
  3   H            X -0.00025760  0.00040689  0.00009361 -0.00064161  0.00082079
                   Y -0.00029523  0.00039932 -0.00001518  0.00014319  0.00048076
                   Z -0.00013521  0.00021653 -0.00013798 -0.00004180  0.00041195
  4   H            X -0.00097319 -0.00042151  0.00066903  0.00338766  0.00015858
                   Y  0.00070009 -0.00024201  0.00026857  0.00194479 -0.00016757
                   Z  0.00171264  0.00088965  0.00009522  0.00018734  0.00010822
  5   C            X -0.02323923 -0.00006511  0.00004617  0.00007229 -0.00022413
                   Y  0.00233241 -0.00004417  0.00001501  0.00014766 -0.00010357
                   Z -0.04698392 -0.00004034  0.00002791 -0.00024292  0.00008053
  6   C            X  0.00205355  0.00043378 -0.00003197  0.00158277 -0.00007684
                   Y -0.00052122 -0.00001316  0.00074109  0.00192439 -0.00038282
                   Z  0.00198594  0.00008284  0.00003861  0.00049767 -0.00011517
  7   C            X -0.00003915  0.00070085 -0.00003226  0.00011447  0.00140697
                   Y -0.00033029 -0.00234771  0.00075736 -0.00037214  0.00500871
                   Z  0.00007475  0.00016903  0.00026738 -0.00006869  0.00259037
  8   C            X  0.00006924 -0.03502083  0.00697761 -0.00217699  0.02963486
                   Y -0.00005229  0.04528207 -0.01297589  0.00379462 -0.03824404
                   Z  0.00003381 -0.03697109  0.01222360 -0.00415442 -0.07664781
  9   C            X  0.00005355  0.01710022  0.05979861 -0.01826521  0.00423875
                   Y  0.00001746  0.00304021  0.01851013 -0.00259599  0.00523153
                   Z  0.00001190 -0.00329489 -0.02106366  0.00753348  0.01276437
 10   C            X  0.00007835 -0.00080708 -0.00066490  0.00740972 -0.00027760
                   Y  0.00015493  0.00017412 -0.01828898 -0.06843739  0.00094904
                   Z  0.00006837  0.00028565  0.00164215 -0.00041947  0.00036888
 11   H            X  0.38348890  0.00034284 -0.00004491  0.00044074  0.00222246
                   Y  0.35313638  0.00045781 -0.00004941  0.00057364  0.00202248
                   Z -0.02546195 -0.00011994 -0.00003476 -0.00023189 -0.00005482
 12   H            X -0.33684574 -0.00017931  0.00023650 -0.00114211  0.00070605
                   Y  0.09111434  0.00004941 -0.00008723  0.00030581 -0.00019585
                   Z  0.55399060  0.00026770 -0.00046904  0.00165539 -0.00129954
 13   H            X  0.20371152  0.00024164 -0.00004566  0.00051779  0.00011472
                   Y -0.46553835 -0.00058503  0.00010376 -0.00164533 -0.00037859
                   Z  0.00068548  0.00022573  0.00004456 -0.00006709 -0.00008090
 14   H            X  0.00163164  0.01159154 -0.00547164  0.00300445 -0.02190544
                   Y  0.00420307  0.02371164 -0.01068194  0.00825542 -0.05247378
                   Z  0.00205255  0.00974764 -0.00525345  0.00342510 -0.02534166
 15   H            X -0.00007676  0.35246785 -0.08101637  0.02110259 -0.38607046
                   Y  0.00033729 -0.45358520  0.10639706 -0.02692415  0.49823571
                   Z  0.00029927 -0.26396732  0.06294366 -0.01638489  0.28058381
 16   H            X -0.00027047  0.03554125 -0.01151800  0.00364212  0.03835244
                   Y  0.00007387 -0.05300466  0.01246653 -0.00418746 -0.05377852
                   Z -0.00140167  0.68117088 -0.19066542  0.06042692  0.62216710
 17   H            X -0.00015747 -0.07431059 -0.28239766  0.08244708  0.03009314
                   Y  0.00002236  0.01052969  0.05300045 -0.01316257 -0.00895289
                   Z  0.00039147  0.16193512  0.61052821 -0.18321805 -0.06712265
 18   H            X -0.00062093 -0.11916133 -0.38546083  0.09721572 -0.08007347
                   Y -0.00036959 -0.07374381 -0.24391083  0.06066308 -0.04865553
                   Z -0.00062173 -0.11452505 -0.37522260  0.09598164 -0.07591884
 19   H            X -0.00003232  0.00072974  0.00889669  0.02668969 -0.00054982
                   Y -0.00153942 -0.00102864  0.13769766  0.45558598 -0.00204889
                   Z  0.00169481  0.00165878 -0.15656809 -0.52578118  0.00246483
 20   H            X -0.00005707 -0.00021459 -0.02993162 -0.10532922  0.00210190
                   Y -0.00072824 -0.00120135  0.07824122  0.29901595 -0.00521059
                   Z -0.00097449 -0.00301595  0.13601589  0.52652594 -0.00871153

 TRANS. SAYVETZ    X -0.00000017 -0.00000012  0.00000018  0.00000005  0.00000002
                   Y  0.00000030  0.00000009  0.00000021 -0.00000038 -0.00000002
                   Z -0.00000051 -0.00000015 -0.00000009  0.00000033 -0.00000016
               TOTAL  0.00000061  0.00000021  0.00000029  0.00000051  0.00000016

   ROT. SAYVETZ    X  0.00076368  0.00046376 -0.00063126 -0.00053843  0.00040716
                   Y  0.00009468  0.00087718  0.00070911 -0.00036203 -0.00035292
                   Z  0.00063727 -0.00017411 -0.00035296 -0.00082124  0.00056240
               TOTAL  0.00099914  0.00100739  0.00101287  0.00104662  0.00077886

                           56          57          58          59          60
       FREQUENCY:      3737.21     3739.08     3739.70     3747.64     3769.31  
        SYMMETRY:         A           A           A           A           A   
    REDUCED MASS:      1.09751     1.11154     1.10734     1.11007     1.11044
    IR INTENSITY:      0.46391     0.08940     0.02923     0.00341     0.00887

  1   B            X -0.00028804  0.00004723 -0.00000922  0.00009205  0.00007972
                   Y  0.00085525 -0.00024293  0.00005733 -0.00010204 -0.00010685
                   Z  0.00014649 -0.00008221  0.00022095 -0.00004400  0.00009764
  2   H            X -0.00023335  0.00028892 -0.00058576 -0.00034335 -0.00003052
                   Y  0.00030263  0.00001272 -0.00007812  0.00006948  0.00029267
                   Z -0.00038805  0.00046927 -0.00029245 -0.00005532  0.00017886
  3   H            X  0.00179925 -0.00031529  0.00012591  0.00043620 -0.00023338
                   Y  0.00046538 -0.00003744  0.00023563  0.00070711  0.00018262
                   Z  0.00016830  0.00007893 -0.00009542  0.00045782 -0.00003453
  4   H            X -0.00490616 -0.00024900 -0.00271938  0.00281271 -0.00041470
                   Y  0.00189380 -0.00110888  0.00150565  0.00246555  0.00115380
                   Z  0.00573452 -0.00154860  0.00115983  0.00107515 -0.00161615
  5   C            X -0.00758707  0.01569716  0.07290410  0.00343131 -0.01068432
                   Y  0.00191437 -0.00133949 -0.00758000 -0.00219404 -0.09101393
                   Z  0.00568619 -0.01060521 -0.04832934 -0.00243800 -0.00164831
  6   C            X -0.00065735  0.00046210 -0.00054379  0.00018250 -0.00011388
                   Y  0.00302648 -0.00086534  0.00062106  0.00019012  0.00045612
                   Z -0.00110033 -0.00004623 -0.00112217  0.00027692 -0.00043939
  7   C            X -0.02988826  0.00834396 -0.00516412 -0.00139762 -0.00060005
                   Y -0.06805863  0.01897256 -0.01139172 -0.00293505 -0.00077365
                   Z -0.03238298  0.00902650 -0.00539412 -0.00138582 -0.00051839
  8   C            X  0.00671162  0.00169901  0.00035664  0.00190124 -0.00000296
                   Y -0.00404710 -0.00270996  0.00016213 -0.00214025  0.00011347
                   Z -0.00549290 -0.00986640  0.00147420 -0.00437859  0.00013112
  9   C            X -0.00368002 -0.01650351  0.00343125 -0.00484114 -0.00000673
                   Y -0.00672809 -0.02573364  0.00531026 -0.00934794  0.00004650
                   Z -0.02136699 -0.07526391  0.01538652 -0.02852446  0.00007062
 10   C            X -0.00166164 -0.00343371 -0.00015033  0.01127127 -0.00010781
                   Y -0.00019356 -0.00296075  0.00049740  0.00385935 -0.00012046
                   Z  0.01206297  0.02980997 -0.00097877 -0.08514725  0.00223601
 11   H            X  0.03224293 -0.08003788 -0.36750378 -0.00869354  0.45009712
                   Y  0.03044641 -0.07482009 -0.34451010 -0.00882736  0.41333382
                   Z -0.00164754  0.00431865  0.02028928  0.00091189 -0.02949741
 12   H            X  0.03981678 -0.07567551 -0.34733189 -0.01746205 -0.03526750
                   Y -0.01093718  0.02086334  0.09559613  0.00476957  0.00582405
                   Z -0.06579854  0.12450649  0.57024189  0.02940792  0.05562751
 13   H            X  0.01886878 -0.02966907 -0.14231426 -0.01325239 -0.28588384
                   Y -0.04383890  0.07013727  0.33731184  0.03071966  0.65663274
                   Z  0.00173340 -0.00136211 -0.00432680 -0.00010850 -0.00213433
 14   H            X  0.33271357 -0.09103370  0.05513567  0.01491196  0.00378978
                   Y  0.75053640 -0.20610462  0.12483252  0.03185537  0.00919695
                   Z  0.37463522 -0.10251948  0.06255236  0.01542852  0.00436763
 15   H            X -0.04934322 -0.03341301  0.00177428 -0.02185046  0.00015682
                   Y  0.06024888  0.04602106 -0.00337613  0.02846509 -0.00049241
                   Z  0.03338705  0.02599945 -0.00199097  0.01623311 -0.00035074
 16   H            X  0.00385016  0.00471130 -0.00067045  0.00229395  0.00007556
                   Y -0.00556866 -0.01092725  0.00179689 -0.00483731  0.00009754
                   Z  0.04641146  0.09132720 -0.01456445  0.03883108 -0.00083468
 17   H            X -0.06654041 -0.22759651  0.04668890 -0.09773987  0.00052255
                   Y  0.01059538  0.03863622 -0.00809304  0.01788469 -0.00013280
                   Z  0.14302851  0.48830688 -0.09980326  0.19962393 -0.00087790
 18   H            X  0.11362311  0.41409095 -0.08513682  0.15017993 -0.00020708
                   Y  0.07108945  0.25996783 -0.05336539  0.09300036 -0.00010368
                   Z  0.10786856  0.39391099 -0.08094009  0.14338960 -0.00025246
 19   H            X  0.00365571  0.00852898 -0.00063070 -0.02086683  0.00062378
                   Y  0.05293276  0.14043076 -0.00609279 -0.38045316  0.00943232
                   Z -0.06010467 -0.15844168  0.00631817  0.43173180 -0.01056105
 20   H            X  0.01532673  0.03525732 -0.00013634 -0.11701988  0.00301673
                   Y -0.04537325 -0.10614155  0.00102753  0.33493838 -0.00725264
                   Z -0.07946900 -0.18610997  0.00297211  0.57139044 -0.01307690

 TRANS. SAYVETZ    X  0.00000005 -0.00000002  0.00000001 -0.00000009 -0.00000004
                   Y -0.00000009 -0.00000006  0.00000000  0.00000001 -0.00000002
                   Z -0.00000060  0.00000014 -0.00000011 -0.00000023  0.00000003
               TOTAL  0.00000061  0.00000015  0.00000011  0.00000025  0.00000005

   ROT. SAYVETZ    X -0.00418525  0.00118670 -0.00052911  0.00013032 -0.00033645
                   Y  0.00637735 -0.00171069  0.00122903  0.00015634 -0.00006788
                   Z -0.00642704  0.00217740 -0.00089214 -0.00107043 -0.00008478
               TOTAL  0.00997465  0.00301260  0.00160822  0.00108961  0.00035354

 REFERENCE ON SAYVETZ CONDITIONS - A. SAYVETZ, J.CHEM.PHYS., 7, 383-389(1939).

 NOTE - THE MODES J,K ARE ORTHONORMALIZED ACCORDING TO
 SUM ON I   M(I) * (X(I,J)*X(I,K) + Y(I,J)*Y(I,K) + Z(I,J)*Z(I,K)) = DELTA(J,K)

  MODE FREQ(CM**-1)  SYMMETRY  RED. MASS  IR INTENS.
     1    1101.067    A        2.130426    3.788166
     2     538.252    A        1.215648    6.640283
     3       0.008    A        4.805539    0.000000
     4       0.001    A        4.805545    0.000000
     5       0.004    A        4.805524    0.000000
     6      43.399    A        3.101786    0.010993
     7      87.014    A        2.753417    0.002875
     8     127.004    A        2.704788    0.054708
     9     144.009    A        1.918159    0.013534
    10     236.461    A        1.161214    0.014410
    11     268.051    A        1.903136    0.016517
    12     330.534    A        2.591566    0.010035
    13     361.585    A        2.440855    0.070330
    14     430.485    A        3.043910    0.018743
    15     504.510    A        2.561028    0.238488
    16     673.421    A        2.334560    1.085263
    17     712.851    A        1.402590    0.063598
    18     745.650    A        1.607641    0.170904
    19     782.889    A        1.539313    0.320197
    20     906.433    A        1.278370    0.482846
    21     940.507    A        1.920443    0.033140
    22     997.000    A        1.941523    0.008161
    23    1037.086    A        1.342838    1.230942
    24    1049.191    A        1.477205    0.549231
    25    1093.701    A        2.053189    0.065931
    26    1124.560    A        1.779144    0.289027
    27    1183.754    A        1.398735    0.839155
    28    1216.360    A        1.324940    1.411065
    29    1245.992    A        1.417749    2.068435
    30    1263.211    A        1.232338    2.894885
    31    1299.383    A        1.120262    0.586676
    32    1309.606    A        1.449162    1.334237
    33    1322.070    A        1.229057    1.564780
    34    1357.079    A        1.336895    0.136185
    35    1406.082    A        1.491348    0.165046
    36    1475.773    A        1.257293    0.002262
    37    1483.956    A        1.293059    0.021481
    38    1508.014    A        1.571569    0.095211
    39    1605.710    A        2.019059    0.049542
    40    1615.874    A        1.769546    0.262605
    41    1634.275    A        1.585083    0.037718
    42    1709.906    A        1.319679    0.114554
    43    1751.931    A        3.131064    0.395224
    44    1805.830    A        1.103589    0.007220
    45    1809.332    A        1.050113    0.043958
    46    1811.344    A        1.085326    0.025103
    47    1820.300    A        1.102289    0.014432
    48    1836.420    A        1.122131    0.005960
    49    3183.104    A        1.037001    0.037651
    50    3404.217    A        1.151523    0.173566
    51    3566.026    A        1.039376    0.008441
    52    3609.384    A        1.065983    0.059500
    53    3618.674    A        1.067275    0.064179
    54    3629.414    A        1.068663    0.015285
    55    3722.222    A        1.111144    0.007671
    56    3737.215    A        1.097513    0.463913
    57    3739.083    A        1.111543    0.089401
    58    3739.702    A        1.107344    0.029226
    59    3747.644    A        1.110066    0.003408
    60    3769.310    A        1.110444    0.008865

     -------------------------------
     THERMOCHEMISTRY AT T=  298.15 K
     -------------------------------

 USING IDEAL GAS, RIGID ROTOR, HARMONIC NORMAL MODE APPROXIMATIONS.
 P=  1.01325E+05 PASCAL.
 ALL FREQUENCIES ARE SCALED BY   1.00000
 THE MOMENTS OF INERTIA ARE (IN AMU*BOHR**2)
            525.74718           764.83516           956.23151
 THE ROTATIONAL SYMMETRY NUMBER IS  1.0
 THE ROTATIONAL CONSTANTS ARE (IN GHZ)
      3.42957     2.35749     1.88562
   2 IMAGINARY FREQUENCY VIBRATION(S) IS(ARE) EXCLUDED
     FROM THE FOLLOWING THERMOCHEMICAL ANALYSIS.
      9 -     60 VIBRATIONAL MODES ARE USED IN THERMOCHEMISTRY.
 THE HARMONIC ZERO POINT ENERGY IS (SCALED BY   1.000)
        0.203388 HARTREE/MOLECULE    44638.559423 CM**-1/MOLECULE 
      127.628174 KCAL/MOL              533.996280 KJ/MOL

               Q               LN Q
 ELEC.     1.00000E+00       0.000000
 TRANS.    3.70351E+07      17.427377
 ROT.      2.21971E+05      12.310300
 VIB.      9.41111E+00       2.241891
 TOT.      7.73659E+13      31.979567

              E         H         G         CV        CP        S
           KJ/MOL    KJ/MOL    KJ/MOL   J/MOL-K   J/MOL-K   J/MOL-K
 ELEC.      0.000     0.000     0.000     0.000     0.000     0.000
 TRANS.     3.718     6.197   -43.201    12.472    20.786   165.684
 ROT.       3.718     3.718   -30.517    12.472    12.472   114.824
 VIB.     543.594   543.594   528.439    78.864    78.864    50.831
 TOTAL    551.031   553.510   454.721   103.807   112.122   331.340
 VIB. THERMAL CORRECTION E(T)-E(0) = H(T)-H(0) =      9597.693 J/MOL

              E         H         G         CV        CP        S
         KCAL/MOL  KCAL/MOL  KCAL/MOL CAL/MOL-K CAL/MOL-K CAL/MOL-K
 ELEC.      0.000     0.000     0.000     0.000     0.000     0.000
 TRANS.     0.889     1.481   -10.325     2.981     4.968    39.600
 ROT.       0.889     0.889    -7.294     2.981     2.981    27.444
 VIB.     129.922   129.922   126.300    18.849    18.849    12.149
 TOTAL    131.700   132.292   108.681    24.811    26.798    79.192
 VIB. THERMAL CORRECTION E(T)-E(0) = H(T)-H(0) =      2293.904 CAL/MOL

     *******************************************************
     * THIS IS NOT A STATIONARY POINT ON THE MOLECULAR PES *
     *     THE VIBRATIONAL ANALYSIS IS NOT VALID !!!       *
     *******************************************************
 ......END OF NORMAL COORDINATE ANALYSIS......
 STEP CPU TIME =     0.01 TOTAL CPU TIME =        113.9 (      1.9 MIN)
 TOTAL WALL CLOCK TIME=        115.2 SECONDS, CPU UTILIZATION IS    98.90%
               580000  WORDS OF DYNAMIC MEMORY USED
 EXECUTION OF GAMESS TERMINATED NORMALLY Mon Nov 15 05:52:47 2021
 DDI: 263640 bytes (0.3 MB / 0 MWords) used by master data server.

 ----------------------------------------
 CPU timing information for all processes
 ========================================
 0: 111.903 + 2.08 = 113.911
 ----------------------------------------
 ddikick.x: exited gracefully.
----- accounting info -----
Files used on the master node chemcompute-node-0.novalocal were:
-rw-r--r--. 1 chemcomp chemcomp     1361 Nov 15 05:50 /scratch/306690/342704.F05
-rw-rw-r--. 1 chemcomp chemcomp  7920704 Nov 15 05:52 /scratch/306690/342704.F08
-rw-rw-r--. 1 chemcomp chemcomp 85196800 Nov 15 05:52 /scratch/306690/342704.F10
-rw-rw-r--. 1 chemcomp chemcomp   564960 Nov 15 05:52 /scratch/306690/342704.F18
Mon Nov 15 05:52:51 UTC 2021
0.119u 0.105s 1:58.70 0.1%	0+0k 8+216io 0pf+0w
Finishing Up...
Looking for IR data...
Looking for Raman data...
vibramans not found
Looking for thermodynamics data...
Looking for UV-Vis data...
306690
